 Default is to use a total of   8 processors:
                                8 via shared-memory
                                1 via Linda
 Entering Link 1 = C:\G16W\l1.exe PID=     22336.
  
 Copyright (c) 1988-2019, Gaussian, Inc.  All Rights Reserved.
  
 This is part of the Gaussian(R) 16 program.  It is based on
 the Gaussian(R) 09 system (copyright 2009, Gaussian, Inc.),
 the Gaussian(R) 03 system (copyright 2003, Gaussian, Inc.),
 the Gaussian(R) 98 system (copyright 1998, Gaussian, Inc.),
 the Gaussian(R) 94 system (copyright 1995, Gaussian, Inc.),
 the Gaussian 92(TM) system (copyright 1992, Gaussian, Inc.),
 the Gaussian 90(TM) system (copyright 1990, Gaussian, Inc.),
 the Gaussian 88(TM) system (copyright 1988, Gaussian, Inc.),
 the Gaussian 86(TM) system (copyright 1986, Carnegie Mellon
 University), and the Gaussian 82(TM) system (copyright 1983,
 Carnegie Mellon University). Gaussian is a federally registered
 trademark of Gaussian, Inc.
  
 This software contains proprietary and confidential information,
 including trade secrets, belonging to Gaussian, Inc.
  
 This software is provided under written license and may be
 used, copied, transmitted, or stored only in accord with that
 written license.
  
 The following legend is applicable only to US Government
 contracts under FAR:
  
                    RESTRICTED RIGHTS LEGEND
  
 Use, reproduction and disclosure by the US Government is
 subject to restrictions as set forth in subparagraphs (a)
 and (c) of the Commercial Computer Software - Restricted
 Rights clause in FAR 52.227-19.
  
 Gaussian, Inc.
 340 Quinnipiac St., Bldg. 40, Wallingford CT 06492
  
  
 ---------------------------------------------------------------
 Warning -- This program may not be used in any manner that
 competes with the business of Gaussian, Inc. or will provide
 assistance to any competitor of Gaussian, Inc.  The licensee
 of this program is prohibited from giving any competitor of
 Gaussian, Inc. access to this program.  By using this program,
 the user acknowledges that Gaussian, Inc. is engaged in the
 business of creating and licensing software in the field of
 computational chemistry and represents and warrants to the
 licensee that it is not a competitor of Gaussian, Inc. and that
 it will not use this program in any manner prohibited above.
 ---------------------------------------------------------------
  

 Cite this work as:
 Gaussian 16, Revision C.01,
 M. J. Frisch, G. W. Trucks, H. B. Schlegel, G. E. Scuseria, 
 M. A. Robb, J. R. Cheeseman, G. Scalmani, V. Barone, 
 G. A. Petersson, H. Nakatsuji, X. Li, M. Caricato, A. V. Marenich, 
 J. Bloino, B. G. Janesko, R. Gomperts, B. Mennucci, H. P. Hratchian, 
 J. V. Ortiz, A. F. Izmaylov, J. L. Sonnenberg, D. Williams-Young, 
 F. Ding, F. Lipparini, F. Egidi, J. Goings, B. Peng, A. Petrone, 
 T. Henderson, D. Ranasinghe, V. G. Zakrzewski, J. Gao, N. Rega, 
 G. Zheng, W. Liang, M. Hada, M. Ehara, K. Toyota, R. Fukuda, 
 J. Hasegawa, M. Ishida, T. Nakajima, Y. Honda, O. Kitao, H. Nakai, 
 T. Vreven, K. Throssell, J. A. Montgomery, Jr., J. E. Peralta, 
 F. Ogliaro, M. J. Bearpark, J. J. Heyd, E. N. Brothers, K. N. Kudin, 
 V. N. Staroverov, T. A. Keith, R. Kobayashi, J. Normand, 
 K. Raghavachari, A. P. Rendell, J. C. Burant, S. S. Iyengar, 
 J. Tomasi, M. Cossi, J. M. Millam, M. Klene, C. Adamo, R. Cammi, 
 J. W. Ochterski, R. L. Martin, K. Morokuma, O. Farkas, 
 J. B. Foresman, and D. J. Fox, Gaussian, Inc., Wallingford CT, 2019.
 
 ******************************************
 Gaussian 16:  EM64W-G16RevC.01 30-May-2019
                15-Nov-2025 
 ******************************************
 %mem=6GB
 %chk=C:\Users\al6323\OneDrive - Imperial College London\Desktop\TSR20251115\prod
 uct_opt+freq.chk
 %nprocshared=8
 Will use up to    8 processors via shared memory.
 Default route: MaxDisk=10GB
 ----------------------------------------------------------------------
 # opt=(calcfc,tight,cartesian,maxcycles=200,maxstep=2) freq rpm6 nosym
 m geom=connectivity scf=(xqc,verytight)
 ----------------------------------------------------------------------
 1/6=200,7=10,8=2,10=4,18=10,26=1,38=1,57=2/1,3;
 2/12=2,15=1,17=6,18=5,29=2,40=1/2;
 3/5=2,25=1,41=3900000,71=2,116=1,140=1/1,2,3;
 4/35=1/1;
 5/5=2,8=3,13=1,17=3,35=1,38=5/2,8;
 8/6=4,10=90,11=11/1;
 11/6=1,8=1,9=11,15=111,16=1,31=1/1,2,10;
 10/6=1,13=1,31=1/2;
 6/7=2,8=2,9=2,10=2,28=1/1;
 7/7=1,10=1,25=1,30=1/1,2,3,16;
 1/6=200,7=10,8=2,10=4,18=10,26=1/3(2);
 2/15=1,29=1/2;
 99/12=1/99;
 2/15=1,29=1/2;
 3/5=2,25=1,41=3900000,71=1,116=1,135=20/1,2,3;
 4/5=5,16=3,35=1/1;
 5/5=2,8=3,13=1,17=3,35=1,38=5/2,8;
 7/7=1,30=1/1,2,3,16;
 1/6=200,7=10,8=2,18=10,26=1/3(-5);
 2/15=1,29=1/2;
 6/7=2,8=2,9=2,10=2,19=2,28=1/1;
 99/9=1,12=1/99;
 -------------------
 Title Card Required
 -------------------
 Symbolic Z-matrix:
 Charge =  0 Multiplicity = 1
 C                    -0.17184  -1.10587   0.15951 
 C                    -1.33201  -1.14264   0.92114 
 C                    -2.47091  -0.15278   0.65872 
 C                    -2.32006   0.76487  -0.33859 
 C                    -1.01937   0.80609  -1.19247 
 C                    -0.00449  -0.07461  -0.96044 
 C                     0.86151  -2.19402   0.58272 
 C                    -1.3057   -2.2627    2.00546 
 H                    -3.36544  -0.18069   1.24518 
 H                    -3.10494   1.46466  -0.53646 
 H                    -0.92043   1.53389  -1.97055 
 H                     0.8893   -0.04585  -1.54799 
 H                     1.4998   -1.81168   1.35168 
 H                    -0.87076  -1.88681   2.90792 
 S                    -0.25272  -3.38834   1.19145 
 H                     1.48283  -2.56389  -0.20598 
 H                    -2.25895  -2.68248   2.25043 
 O                    -0.96394  -4.03026   0.07707 
 O                     0.4032   -4.60247   2.13197 
 

 GradGradGradGradGradGradGradGradGradGradGradGradGradGradGradGradGradGrad
 Berny optimization.
 Initialization pass.
 No Z-matrix variables, so optimization will use Cartesian coordinates.
 Trust Radius=2.00D-02 FncErr=1.00D-07 GrdErr=1.00D-07 EigMax=2.50D+02 EigMin=1.00D-04
 Number of steps in this run=    114 maximum allowed number of steps=    114.
 GradGradGradGradGradGradGradGradGradGradGradGradGradGradGradGradGradGrad

 ---------------------------------------------------------------------------------------------------
                            Z-MATRIX (ANGSTROMS AND DEGREES)
   CD    Cent   Atom    N1       Length/X        N2       Alpha/Y        N3        Beta/Z          J
 ---------------------------------------------------------------------------------------------------
      1      1  C        0  -0.171840         -1.105869          0.159508
      2      2  C        0  -1.332005         -1.142637          0.921137
      3      3  C        0  -2.470911         -0.152777          0.658723
      4      4  C        0  -2.320060          0.764867         -0.338593
      5      5  C        0  -1.019375          0.806089         -1.192471
      6      6  C        0  -0.004487         -0.074611         -0.960442
      7      7  C        0   0.861507         -2.194017          0.582722
      8      8  C        0  -1.305701         -2.262700          2.005457
      9      9  H        0  -3.365444         -0.180690          1.245180
     10     10  H        0  -3.104940          1.464661         -0.536463
     11     11  H        0  -0.920434          1.533893         -1.970553
     12     12  H        0   0.889304         -0.045848         -1.547988
     13     13  H        0   1.499799         -1.811680          1.351684
     14     14  H        0  -0.870763         -1.886808          2.907917
     15     15  S        0  -0.252717         -3.388344          1.191447
     16     16  H        0   1.482832         -2.563891         -0.205978
     17     17  H        0  -2.258945         -2.682475          2.250434
     18     18  O        0  -0.963941         -4.030259          0.077073
     19     19  O        0   0.403195         -4.602471          2.131966
 ---------------------------------------------------------------------------------------------------
                         Z-Matrix orientation:                         
 ---------------------------------------------------------------------
 Center     Atomic      Atomic             Coordinates (Angstroms)
 Number     Number       Type             X           Y           Z
 ---------------------------------------------------------------------
      1          6           0       -0.171840   -1.105869    0.159508
      2          6           0       -1.332005   -1.142637    0.921137
      3          6           0       -2.470911   -0.152777    0.658723
      4          6           0       -2.320060    0.764867   -0.338593
      5          6           0       -1.019375    0.806089   -1.192471
      6          6           0       -0.004487   -0.074611   -0.960442
      7          6           0        0.861507   -2.194017    0.582722
      8          6           0       -1.305701   -2.262700    2.005457
      9          1           0       -3.365444   -0.180690    1.245180
     10          1           0       -3.104940    1.464661   -0.536463
     11          1           0       -0.920434    1.533893   -1.970553
     12          1           0        0.889304   -0.045848   -1.547988
     13          1           0        1.499799   -1.811680    1.351684
     14          1           0       -0.870763   -1.886808    2.907917
     15         16           0       -0.252717   -3.388344    1.191447
     16          1           0        1.482832   -2.563891   -0.205978
     17          1           0       -2.258945   -2.682475    2.250434
     18          8           0       -0.963941   -4.030259    0.077073
     19          8           0        0.403195   -4.602471    2.131966
 ---------------------------------------------------------------------
                    Distance matrix (angstroms):
                    1          2          3          4          5
     1  C    0.000000
     2  C    1.388313   0.000000
     3  C    2.538371   1.531597   0.000000
     4  C    2.891818   2.490331   1.363623   0.000000
     5  C    2.490331   2.891818   2.540334   1.556466   0.000000
     6  C    1.531597   2.538371   2.951449   2.540334   1.363623
     7  C    1.559160   2.455895   3.908637   4.441417   3.961017
     8  C    2.455895   1.559160   2.761011   3.961017   4.441417
     9  H    3.497677   2.272711   1.070000   2.120199   3.524189
    10  H    3.961701   3.473600   2.108689   1.070000   2.283341
    11  H    3.473600   3.961701   3.487395   2.283341   1.070000
    12  H    2.272711   3.497677   4.021449   3.524189   2.120199
    13  H    2.171135   2.941446   4.358749   4.907846   4.435276
    14  H    2.941446   2.171135   3.259787   4.435276   4.907846
    15  S    2.506218   2.506218   3.958923   4.885089   4.885089
    16  H    2.235475   3.348681   4.710972   5.055710   4.311725
    17  H    3.348681   2.235475   2.996306   4.311725   5.055710
    18  O    3.030887   3.030887   4.200493   5.000508   5.000508
    19  O    4.055549   4.055549   5.498246   6.506005   6.506005
                    6          7          8          9         10
     6  C    0.000000
     7  C    2.761011   0.000000
     8  C    3.908637   2.593392   0.000000
     9  H    4.021449   4.728578   3.025777   0.000000
    10  H    3.487395   5.511007   4.857143   2.439117   0.000000
    11  H    2.108689   4.857143   5.511007   4.388485   2.614091
    12  H    1.070000   3.025777   4.728578   5.091448   4.388485
    13  H    3.259787   1.070000   2.915762   5.132451   5.958450
    14  H    4.358749   2.915762   1.070000   3.449487   5.299777
    15  S    3.958923   1.743118   1.743118   4.470011   5.888336
    16  H    2.996306   1.070000   3.571705   5.593861   6.114418
    17  H    4.710972   3.571705   1.070000   2.914413   5.067666
    18  O    4.200493   2.638130   2.638130   4.685176   5.929119
    19  O    5.498246   2.900148   2.900148   5.877174   7.499174
                   11         12         13         14         15
    11  H    0.000000
    12  H    2.439117   0.000000
    13  H    5.299777   3.449487   0.000000
    14  H    5.958450   5.132451   2.836736   0.000000
    15  S    5.888336   4.470011   2.362807   2.362807   0.000000
    16  H    5.067666   2.914413   1.729861   3.961590   2.375848
    17  H    6.114418   5.593861   3.961590   1.729861   2.375848
    18  O    5.929119   4.685176   3.552005   3.552005   1.469600
    19  O    7.499174   5.877174   3.098370   3.098370   1.670000
                   16         17         18         19
    16  H    0.000000
    17  H    4.477602   0.000000
    18  O    2.866540   2.866540   0.000000
    19  O    3.284419   3.284419   2.533588   0.000000
 Symmetry turned off by external request.
 Stoichiometry    C8H8O2S
 Framework group  CS[SG(O2S),X(C8H8)]
 Deg. of freedom    27
 Full point group                 CS      NOp   2
 Rotational constants (GHZ):           2.4534203           0.6630737           0.5911170
 Standard basis: VSTO-6G (5D, 7F)
    57 basis functions,   348 primitive gaussians,    58 cartesian basis functions
    29 alpha electrons       29 beta electrons
       nuclear repulsion energy       337.0192646882 Hartrees.
 Integral buffers will be    131072 words long.
 Regular integral format.
 Two-electron integral symmetry is turned off.
 Do NDO integrals.
 One-electron integrals computed using PRISM.
 NBasis=    57 RedAO= F EigKep=  0.00D+00  NBF=    57
 NBsUse=    57 1.00D-04 EigRej=  0.00D+00 NBFU=    57
 Nonelectrostatic core Hamiltonian diagonalized for initial guess.
 Keep J ints in memory in canonical form, NReq=1859402.
 Overlap will be assumed to be unity.
 Requested convergence on RMS density matrix=1.00D-08 within  32 cycles.
 Requested convergence on MAX density matrix=1.00D-06.
 Requested convergence on             energy=1.00D-06.
 No special actions if energy rises.
 SCF Done:  E(RPM6) = -0.783129043884E-02 A.U. after   18 cycles
            NFock= 17  Conv=0.63D-08     -V/T= 0.9999
 QCSCF skips out because SCF is already converged.
 Range of M.O.s used for correlation:     1    57
 NBasis=    57 NAE=    29 NBE=    29 NFC=     0 NFV=     0
 NROrb=     57 NOA=    29 NOB=    29 NVA=    28 NVB=    28
 Symmetrizing basis deriv contribution to polar:
 IMax=3 JMax=2 DiffMx= 0.00D+00
 G2DrvN: will do    20 centers at a time, making    1 passes.
 Calling FoFCou, ICntrl=  3107 FMM=F I1Cent=   0 AccDes= 0.00D+00.
 End of G2Drv F.D. properties file   721 does not exist.
 End of G2Drv F.D. properties file   722 does not exist.
 End of G2Drv F.D. properties file   788 does not exist.
          IDoAtm=1111111111111111111
          Differentiating once with respect to nuclear coordinates.
          Electric field/nuclear overlap derivatives assumed to be zero.
 Keep J ints in memory in canonical form, NReq=1861376.
          There are    60 degrees of freedom in the 1st order CPHF.  IDoFFX=5 NUNeed=    60.
 LinEq1:  Iter=  0 NonCon=    57 RMS=1.26D-02 Max=9.45D-02 NDo=    57
 AX will form    60 AO Fock derivatives at one time.
 LinEq1:  Iter=  1 NonCon=    57 RMS=2.83D-03 Max=3.62D-02 NDo=    60
 LinEq1:  Iter=  2 NonCon=    57 RMS=7.03D-04 Max=7.43D-03 NDo=    60
 LinEq1:  Iter=  3 NonCon=    57 RMS=1.67D-04 Max=1.77D-03 NDo=    60
 LinEq1:  Iter=  4 NonCon=    57 RMS=3.55D-05 Max=2.80D-04 NDo=    60
 LinEq1:  Iter=  5 NonCon=    57 RMS=8.02D-06 Max=1.08D-04 NDo=    60
 LinEq1:  Iter=  6 NonCon=    57 RMS=2.14D-06 Max=2.91D-05 NDo=    60
 LinEq1:  Iter=  7 NonCon=    57 RMS=4.63D-07 Max=3.68D-06 NDo=    60
 LinEq1:  Iter=  8 NonCon=    34 RMS=9.75D-08 Max=7.89D-07 NDo=    60
 LinEq1:  Iter=  9 NonCon=     8 RMS=1.93D-08 Max=1.39D-07 NDo=    34
 LinEq1:  Iter= 10 NonCon=     0 RMS=3.33D-09 Max=2.44D-08 NDo=     8
 Linear equations converged to 1.000D-08 1.000D-07 after    10 iterations.
 End of Minotr F.D. properties file   721 does not exist.
 End of Minotr F.D. properties file   722 does not exist.
 End of Minotr F.D. properties file   788 does not exist.

 **********************************************************************

            Population analysis using the SCF Density.

 **********************************************************************

 Alpha  occ. eigenvalues --   -1.17518  -1.07813  -1.03051  -0.98518  -0.94141
 Alpha  occ. eigenvalues --   -0.93476  -0.87845  -0.79526  -0.75613  -0.73444
 Alpha  occ. eigenvalues --   -0.65820  -0.61926  -0.61064  -0.58724  -0.58230
 Alpha  occ. eigenvalues --   -0.55680  -0.54499  -0.53620  -0.53026  -0.50458
 Alpha  occ. eigenvalues --   -0.48085  -0.48032  -0.46442  -0.41969  -0.41679
 Alpha  occ. eigenvalues --   -0.38651  -0.37471  -0.36941  -0.36697
 Alpha virt. eigenvalues --   -0.02020  -0.01312   0.00298   0.05607   0.06774
 Alpha virt. eigenvalues --    0.07757   0.08861   0.09576   0.11347   0.11513
 Alpha virt. eigenvalues --    0.13056   0.13411   0.14316   0.16334   0.16351
 Alpha virt. eigenvalues --    0.16712   0.17809   0.19188   0.19454   0.19852
 Alpha virt. eigenvalues --    0.20144   0.20515   0.20664   0.26619   0.26969
 Alpha virt. eigenvalues --    0.27503   0.28714   0.30954
          Condensed to atoms (all electrons):
               1          2          3          4          5          6
     1  C    3.980184   0.000000   0.000000   0.000000   0.000000   0.000000
     2  C    0.000000   3.980184   0.000000   0.000000   0.000000   0.000000
     3  C    0.000000   0.000000   4.139846   0.000000   0.000000   0.000000
     4  C    0.000000   0.000000   0.000000   4.124987   0.000000   0.000000
     5  C    0.000000   0.000000   0.000000   0.000000   4.124987   0.000000
     6  C    0.000000   0.000000   0.000000   0.000000   0.000000   4.139846
     7  C    0.000000   0.000000   0.000000   0.000000   0.000000   0.000000
     8  C    0.000000   0.000000   0.000000   0.000000   0.000000   0.000000
     9  H    0.000000   0.000000   0.000000   0.000000   0.000000   0.000000
    10  H    0.000000   0.000000   0.000000   0.000000   0.000000   0.000000
    11  H    0.000000   0.000000   0.000000   0.000000   0.000000   0.000000
    12  H    0.000000   0.000000   0.000000   0.000000   0.000000   0.000000
    13  H    0.000000   0.000000   0.000000   0.000000   0.000000   0.000000
    14  H    0.000000   0.000000   0.000000   0.000000   0.000000   0.000000
    15  S    0.000000   0.000000   0.000000   0.000000   0.000000   0.000000
    16  H    0.000000   0.000000   0.000000   0.000000   0.000000   0.000000
    17  H    0.000000   0.000000   0.000000   0.000000   0.000000   0.000000
    18  O    0.000000   0.000000   0.000000   0.000000   0.000000   0.000000
    19  O    0.000000   0.000000   0.000000   0.000000   0.000000   0.000000
               7          8          9         10         11         12
     1  C    0.000000   0.000000   0.000000   0.000000   0.000000   0.000000
     2  C    0.000000   0.000000   0.000000   0.000000   0.000000   0.000000
     3  C    0.000000   0.000000   0.000000   0.000000   0.000000   0.000000
     4  C    0.000000   0.000000   0.000000   0.000000   0.000000   0.000000
     5  C    0.000000   0.000000   0.000000   0.000000   0.000000   0.000000
     6  C    0.000000   0.000000   0.000000   0.000000   0.000000   0.000000
     7  C    4.755192   0.000000   0.000000   0.000000   0.000000   0.000000
     8  C    0.000000   4.755192   0.000000   0.000000   0.000000   0.000000
     9  H    0.000000   0.000000   0.842060   0.000000   0.000000   0.000000
    10  H    0.000000   0.000000   0.000000   0.848342   0.000000   0.000000
    11  H    0.000000   0.000000   0.000000   0.000000   0.848342   0.000000
    12  H    0.000000   0.000000   0.000000   0.000000   0.000000   0.842060
    13  H    0.000000   0.000000   0.000000   0.000000   0.000000   0.000000
    14  H    0.000000   0.000000   0.000000   0.000000   0.000000   0.000000
    15  S    0.000000   0.000000   0.000000   0.000000   0.000000   0.000000
    16  H    0.000000   0.000000   0.000000   0.000000   0.000000   0.000000
    17  H    0.000000   0.000000   0.000000   0.000000   0.000000   0.000000
    18  O    0.000000   0.000000   0.000000   0.000000   0.000000   0.000000
    19  O    0.000000   0.000000   0.000000   0.000000   0.000000   0.000000
              13         14         15         16         17         18
     1  C    0.000000   0.000000   0.000000   0.000000   0.000000   0.000000
     2  C    0.000000   0.000000   0.000000   0.000000   0.000000   0.000000
     3  C    0.000000   0.000000   0.000000   0.000000   0.000000   0.000000
     4  C    0.000000   0.000000   0.000000   0.000000   0.000000   0.000000
     5  C    0.000000   0.000000   0.000000   0.000000   0.000000   0.000000
     6  C    0.000000   0.000000   0.000000   0.000000   0.000000   0.000000
     7  C    0.000000   0.000000   0.000000   0.000000   0.000000   0.000000
     8  C    0.000000   0.000000   0.000000   0.000000   0.000000   0.000000
     9  H    0.000000   0.000000   0.000000   0.000000   0.000000   0.000000
    10  H    0.000000   0.000000   0.000000   0.000000   0.000000   0.000000
    11  H    0.000000   0.000000   0.000000   0.000000   0.000000   0.000000
    12  H    0.000000   0.000000   0.000000   0.000000   0.000000   0.000000
    13  H    0.784172   0.000000   0.000000   0.000000   0.000000   0.000000
    14  H    0.000000   0.784172   0.000000   0.000000   0.000000   0.000000
    15  S    0.000000   0.000000   3.665117   0.000000   0.000000   0.000000
    16  H    0.000000   0.000000   0.000000   0.772920   0.000000   0.000000
    17  H    0.000000   0.000000   0.000000   0.000000   0.772920   0.000000
    18  O    0.000000   0.000000   0.000000   0.000000   0.000000   6.883822
    19  O    0.000000   0.000000   0.000000   0.000000   0.000000   0.000000
              19
     1  C    0.000000
     2  C    0.000000
     3  C    0.000000
     4  C    0.000000
     5  C    0.000000
     6  C    0.000000
     7  C    0.000000
     8  C    0.000000
     9  H    0.000000
    10  H    0.000000
    11  H    0.000000
    12  H    0.000000
    13  H    0.000000
    14  H    0.000000
    15  S    0.000000
    16  H    0.000000
    17  H    0.000000
    18  O    0.000000
    19  O    6.955658
 Mulliken charges:
               1
     1  C    0.019816
     2  C    0.019816
     3  C   -0.139846
     4  C   -0.124987
     5  C   -0.124987
     6  C   -0.139846
     7  C   -0.755192
     8  C   -0.755192
     9  H    0.157940
    10  H    0.151658
    11  H    0.151658
    12  H    0.157940
    13  H    0.215828
    14  H    0.215828
    15  S    2.334883
    16  H    0.227080
    17  H    0.227080
    18  O   -0.883822
    19  O   -0.955658
 Sum of Mulliken charges =   0.00000
 Mulliken charges with hydrogens summed into heavy atoms:
               1
     1  C    0.019816
     2  C    0.019816
     3  C    0.018094
     4  C    0.026671
     5  C    0.026671
     6  C    0.018094
     7  C   -0.312283
     8  C   -0.312283
    15  S    2.334883
    18  O   -0.883822
    19  O   -0.955658
 APT charges:
               1
     1  C    0.019816
     2  C    0.019816
     3  C   -0.139846
     4  C   -0.124987
     5  C   -0.124987
     6  C   -0.139846
     7  C   -0.755192
     8  C   -0.755192
     9  H    0.157940
    10  H    0.151658
    11  H    0.151658
    12  H    0.157940
    13  H    0.215828
    14  H    0.215828
    15  S    2.334883
    16  H    0.227080
    17  H    0.227080
    18  O   -0.883822
    19  O   -0.955658
 Sum of APT charges =   0.00000
 APT charges with hydrogens summed into heavy atoms:
               1
     1  C    0.019816
     2  C    0.019816
     3  C    0.018094
     4  C    0.026671
     5  C    0.026671
     6  C    0.018094
     7  C   -0.312283
     8  C   -0.312283
    15  S    2.334883
    18  O   -0.883822
    19  O   -0.955658
 Charge=              0.0000 electrons
 Dipole moment (field-independent basis, Debye):
    X=             -0.1570    Y=              8.1445    Z=              0.0121  Tot=              8.1460
 N-N= 3.370192646882D+02 E-N=-5.258974929564D+02  KE=-1.105575468879D+02
  Exact polarizability:       0.000       0.000       0.000       0.000       0.000       0.000
 Approx polarizability:      71.398     -15.918      67.387      -8.236     -25.282      61.270
 Calling FoFJK, ICntrl=    100127 FMM=F ISym2X=0 I1Cent= 0 IOpClX= 0 NMat=1 NMatS=1 NMatT=0.
 -------------------------------------------------------------------
 Center     Atomic                   Forces (Hartrees/Bohr)
 Number     Number              X              Y              Z
 -------------------------------------------------------------------
      1        6           0.006824781    0.028138614   -0.024802831
      2        6          -0.026694235    0.027076328   -0.002798173
      3        6           0.058675887   -0.034142620   -0.002772112
      4        6           0.062060216   -0.013470567   -0.025324950
      5        6          -0.047241628   -0.016934573    0.046429830
      6        6          -0.024305631   -0.036772468    0.051703814
      7        6          -0.037692828    0.026600491   -0.010873936
      8        6           0.003804089    0.027915615   -0.038115940
      9        1          -0.001910720   -0.005924645    0.006662674
     10        1          -0.000098103    0.006862023   -0.006910103
     11        1          -0.006600639    0.006655946   -0.002641303
     12        1           0.007129129   -0.005638153    0.000728170
     13        1           0.016650529    0.008861592    0.009849308
     14        1           0.002033682    0.008398354    0.019445011
     15       16           0.028968646   -0.149767426    0.036896947
     16        1           0.010946924   -0.001126321   -0.015480591
     17        1          -0.018486528   -0.002059127    0.003841961
     18        8           0.009458786    0.016717800    0.015215341
     19        8          -0.043522358    0.108609137   -0.061053115
 -------------------------------------------------------------------
 Cartesian Forces:  Max     0.149767426 RMS     0.035197012

 GradGradGradGradGradGradGradGradGradGradGradGradGradGradGradGradGradGrad
 Berny optimization.
 Search for a local minimum.
 Step number   1 out of a maximum of  114
 All quantities printed in internal units (Hartrees-Bohrs-Radians)
 Second derivative matrix not updated -- analytic derivatives used.
 ITU=  0
     Eigenvalues ---    0.00085   0.00288   0.00413   0.01269   0.01458
     Eigenvalues ---    0.01514   0.02377   0.02494   0.02604   0.03433
     Eigenvalues ---    0.04021   0.04170   0.04674   0.04768   0.05003
     Eigenvalues ---    0.05230   0.05440   0.06321   0.06392   0.09030
     Eigenvalues ---    0.09693   0.10390   0.10662   0.13002   0.13154
     Eigenvalues ---    0.15298   0.17215   0.19467   0.22898   0.23251
     Eigenvalues ---    0.25552   0.25569   0.30936   0.32003   0.34883
     Eigenvalues ---    0.46559   0.48652   0.49367   0.50045   0.58435
     Eigenvalues ---    0.60450   0.61633   0.63731   0.63972   0.67855
     Eigenvalues ---    0.67870   0.70487   0.97534   0.98470   1.23179
     Eigenvalues ---    1.30443
 RFO step:  Lambda=-1.30765452D-01 EMin= 8.50750182D-04
 Linear search not attempted -- first point.
 Maximum step size (   0.020) exceeded in Quadratic search.
    -- Step size scaled by   0.035
 B after Tr=    -0.000060    0.000108   -0.000086
         Rot=    1.000000    0.000000    0.000000    0.000000 Ang=   0.00 deg.
 Variable       Old X    -DE/DX   Delta X   Delta X   Delta X     New X
                                 (Linear)    (Quad)   (Total)
    X1       -0.32473   0.00682   0.00000   0.00041   0.00035  -0.32438
    Y1       -2.08979   0.02814   0.00000   0.00098   0.00109  -2.08870
    Z1        0.30143  -0.02480   0.00000  -0.00092  -0.00101   0.30042
    X2       -2.51713  -0.02669   0.00000  -0.00105  -0.00111  -2.51824
    Y2       -2.15927   0.02708   0.00000   0.00093   0.00104  -2.15823
    Z2        1.74070  -0.00280   0.00000   0.00004  -0.00005   1.74065
    X3       -4.66934   0.05868   0.00000   0.00518   0.00512  -4.66422
    Y3       -0.28871  -0.03414   0.00000  -0.00331  -0.00321  -0.29191
    Z3        1.24481  -0.00277   0.00000   0.00017   0.00009   1.24489
    X4       -4.38428   0.06206   0.00000   0.00516   0.00510  -4.37918
    Y4        1.44539  -0.01347   0.00000  -0.00183  -0.00173   1.44366
    Z4       -0.63985  -0.02532   0.00000  -0.00131  -0.00140  -0.64125
    X5       -1.92634  -0.04724   0.00000  -0.00317  -0.00323  -1.92957
    Y5        1.52329  -0.01693   0.00000  -0.00210  -0.00199   1.52129
    Z5       -2.25344   0.04643   0.00000   0.00415   0.00406  -2.24938
    X6       -0.00848  -0.02431   0.00000  -0.00175  -0.00181  -0.01029
    Y6       -0.14099  -0.03677   0.00000  -0.00353  -0.00343  -0.14442
    Z6       -1.81497   0.05170   0.00000   0.00472   0.00464  -1.81033
    X7        1.62801  -0.03769   0.00000  -0.00230  -0.00235   1.62566
    Y7       -4.14609   0.02660   0.00000   0.00127   0.00138  -4.14471
    Z7        1.10118  -0.01087   0.00000  -0.00092  -0.00100   1.10019
    X8       -2.46742   0.00380   0.00000   0.00002  -0.00004  -2.46746
    Y8       -4.27588   0.02792   0.00000   0.00134   0.00145  -4.27443
    Z8        3.78976  -0.03812   0.00000  -0.00243  -0.00252   3.78725
    X9       -6.35977  -0.00191   0.00000   0.00226   0.00220  -6.35757
    Y9       -0.34145  -0.00592   0.00000  -0.00109  -0.00099  -0.34244
    Z9        2.35305   0.00666   0.00000  -0.00041  -0.00050   2.35255
   X10       -5.86749  -0.00010   0.00000   0.00225   0.00219  -5.86530
   Y10        2.76781   0.00686   0.00000  -0.00128  -0.00118   2.76663
   Z10       -1.01377  -0.00691   0.00000  -0.00021  -0.00030  -1.01406
   X11       -1.73937  -0.00660   0.00000  -0.00103  -0.00109  -1.74046
   Y11        2.89864   0.00666   0.00000  -0.00139  -0.00128   2.89735
   Z11       -3.72381  -0.00264   0.00000   0.00194   0.00186  -3.72195
   X12        1.68054   0.00713   0.00000  -0.00123  -0.00129   1.67925
   Y12       -0.08664  -0.00564   0.00000  -0.00121  -0.00110  -0.08774
   Z12       -2.92527   0.00073   0.00000   0.00188   0.00179  -2.92348
   X13        2.83421   0.01665   0.00000   0.00068   0.00062   2.83483
   Y13       -3.42358   0.00886   0.00000   0.00073   0.00084  -3.42273
   Z13        2.55431   0.00985   0.00000  -0.00030  -0.00038   2.55393
   X14       -1.64550   0.00203   0.00000  -0.00057  -0.00063  -1.64613
   Y14       -3.56555   0.00840   0.00000   0.00069   0.00080  -3.56475
   Z14        5.49517   0.01945   0.00000   0.00053   0.00045   5.49561
   X15       -0.47757   0.02897   0.00000   0.00091   0.00085  -0.47671
   Y15       -6.40304  -0.14977   0.00000  -0.00546  -0.00535  -6.40840
   Z15        2.25151   0.03690   0.00000   0.00112   0.00104   2.25255
   X16        2.80215   0.01095   0.00000   0.00002  -0.00004   2.80211
   Y16       -4.84505  -0.00113   0.00000   0.00103   0.00114  -4.84391
   Z16       -0.38924  -0.01548   0.00000  -0.00134  -0.00142  -0.39066
   X17       -4.26879  -0.01849   0.00000  -0.00128  -0.00133  -4.27012
   Y17       -5.06914  -0.00206   0.00000   0.00099   0.00110  -5.06805
   Z17        4.25270   0.00384   0.00000  -0.00049  -0.00057   4.25213
   X18       -1.82158   0.00946   0.00000   0.00029   0.00023  -1.82135
   Y18       -7.61609   0.01672   0.00000  -0.00046  -0.00035  -7.61644
   Z18        0.14565   0.01522   0.00000   0.00041   0.00033   0.14598
   X19        0.76193  -0.04352   0.00000  -0.00368  -0.00373   0.75820
   Y19       -8.69741   0.10861   0.00000   0.01166   0.01177  -8.68564
   Z19        4.02883  -0.06105   0.00000  -0.00504  -0.00512   4.02371
         Item               Value     Threshold  Converged?
 Maximum Force            0.149767     0.000015     NO 
 RMS     Force            0.035197     0.000010     NO 
 Maximum Displacement     0.011770     0.000060     NO 
 RMS     Displacement     0.002648     0.000040     NO 
 Predicted change in Energy=-4.574554D-03
 GradGradGradGradGradGradGradGradGradGradGradGradGradGradGradGradGradGrad

                          Input orientation:                          
 ---------------------------------------------------------------------
 Center     Atomic      Atomic             Coordinates (Angstroms)
 Number     Number       Type             X           Y           Z
 ---------------------------------------------------------------------
      1          6           0       -0.171654   -1.105293    0.158975
      2          6           0       -1.332594   -1.142086    0.921112
      3          6           0       -2.468200   -0.154474    0.658768
      4          6           0       -2.317364    0.763953   -0.339335
      5          6           0       -1.021084    0.805034   -1.190321
      6          6           0       -0.005445   -0.076424   -0.957988
      7          6           0        0.860261   -2.193288    0.582194
      8          6           0       -1.305723   -2.261932    2.004125
      9          1           0       -3.364280   -0.181213    1.244916
     10          1           0       -3.103781    1.464037   -0.536619
     11          1           0       -0.921009    1.533213   -1.969571
     12          1           0        0.888623   -0.046430   -1.547042
     13          1           0        1.500129   -1.811233    1.351484
     14          1           0       -0.871097   -1.886382    2.908153
     15         16           0       -0.252267   -3.391177    1.191997
     16          1           0        1.482810   -2.563289   -0.206729
     17          1           0       -2.259651   -2.681895    2.250132
     18          8           0       -0.963819   -4.030446    0.077250
     19          8           0        0.401220   -4.596243    2.129258
 ---------------------------------------------------------------------
                    Distance matrix (angstroms):
                    1          2          3          4          5
     1  C    0.000000
     2  C    1.389241   0.000000
     3  C    2.535345   1.527679   0.000000
     4  C    2.889025   2.488269   1.364723   0.000000
     5  C    2.488269   2.889025   2.536519   1.551194   0.000000
     6  C    1.527679   2.535345   2.947059   2.536519   1.364723
     7  C    1.558107   2.455302   3.904009   4.437543   3.958687
     8  C    2.455302   1.558107   2.757303   3.958687   4.437543
     9  H    3.496577   2.270654   1.071094   2.121137   3.520458
    10  H    3.960136   3.471881   2.110093   1.071210   2.280183
    11  H    3.471881   3.960136   3.485722   2.280183   1.071210
    12  H    2.270654   3.496577   4.018151   3.520458   2.121137
    13  H    2.171471   2.942329   4.355726   4.905477   4.434201
    14  H    2.942329   2.171471   3.257296   4.434201   4.905477
    15  S    2.509761   2.509761   3.958654   4.886175   4.886175
    16  H    2.235339   3.349380   4.707649   5.052666   4.310747
    17  H    3.349380   2.235339   2.993959   4.310747   5.052667
    18  O    3.031620   3.031620   4.198153   4.999188   4.999188
    19  O    4.049312   4.049312   5.488645   6.497411   6.497411
                    6          7          8          9         10
     6  C    0.000000
     7  C    2.757303   0.000000
     8  C    3.904009   2.591927   0.000000
     9  H    4.018151   4.725928   3.023814   0.000000
    10  H    3.485722   5.508303   4.855023   2.438970   0.000000
    11  H    2.110093   4.855023   5.508303   4.386543   2.612016
    12  H    1.071094   3.023814   4.725928   5.089241   4.386543
    13  H    3.257296   1.071076   2.915798   5.131354   5.957207
    14  H    4.355726   2.915798   1.071076   3.448176   5.298740
    15  S    3.958654   1.744854   1.744854   4.471163   5.890021
    16  H    2.993959   1.070919   3.571359   5.592480   6.112691
    17  H    4.707649   3.571359   1.070919   2.912743   5.066289
    18  O    4.198153   2.637686   2.637686   4.684255   5.928373
    19  O    5.488645   2.894532   2.894532   5.869713   7.491256
                   11         12         13         14         15
    11  H    0.000000
    12  H    2.438970   0.000000
    13  H    5.298740   3.448176   0.000000
    14  H    5.957207   5.131354   2.837531   0.000000
    15  S    5.890021   4.471163   2.364857   2.364857   0.000000
    16  H    5.066289   2.912743   1.730293   3.962521   2.377462
    17  H    6.112691   5.592480   3.962521   1.730293   2.377462
    18  O    5.928373   4.684255   3.552410   3.552410   1.468888
    19  O    7.491256   5.869713   3.093349   3.093349   1.660628
                   16         17         18         19
    16  H    0.000000
    17  H    4.478421   0.000000
    18  O    2.866913   2.866913   0.000000
    19  O    3.280179   3.280179   2.528674   0.000000
 Symmetry turned off by external request.
 Stoichiometry    C8H8O2S
 Framework group  C1[X(C8H8O2S)]
 Deg. of freedom    51
 Full point group                 C1      NOp   1
 Rotational constants (GHZ):           2.4571787           0.6638558           0.5919285
 Standard basis: VSTO-6G (5D, 7F)
    57 basis functions,   348 primitive gaussians,    58 cartesian basis functions
    29 alpha electrons       29 beta electrons
       nuclear repulsion energy       337.1652146004 Hartrees.
 Integral buffers will be    131072 words long.
 Regular integral format.
 Two-electron integral symmetry is turned off.
 Do NDO integrals.
 One-electron integrals computed using PRISM.
 NBasis=    57 RedAO= F EigKep=  0.00D+00  NBF=    57
 NBsUse=    57 1.00D-04 EigRej=  0.00D+00 NBFU=    57
 Initial guess from the checkpoint file:  "C:\Users\al6323\OneDrive - Imperial College London\Desktop\TSR20251115\product_opt+freq.chk"
 B after Tr=     0.000009   -0.000308   -0.000001
         Rot=    1.000000   -0.000006    0.000000    0.000004 Ang=   0.00 deg.
 Keep J ints in memory in canonical form, NReq=1859402.
 Overlap will be assumed to be unity.
 Requested convergence on RMS density matrix=1.00D-08 within  32 cycles.
 Requested convergence on MAX density matrix=1.00D-06.
 Requested convergence on             energy=1.00D-06.
 No special actions if energy rises.
 SCF Done:  E(RPM6) = -0.124053247560E-01 A.U. after   12 cycles
            NFock= 11  Conv=0.60D-08     -V/T= 0.9999
 QCSCF skips out because SCF is already converged.
 Calling FoFJK, ICntrl=      2127 FMM=F ISym2X=0 I1Cent= 0 IOpClX= 0 NMat=1 NMatS=1 NMatT=0.
 -------------------------------------------------------------------
 Center     Atomic                   Forces (Hartrees/Bohr)
 Number     Number              X              Y              Z
 -------------------------------------------------------------------
      1        6           0.006638030    0.027283781   -0.024061063
      2        6          -0.025902189    0.026252472   -0.002698972
      3        6           0.057256961   -0.033353544   -0.002653919
      4        6           0.060512444   -0.013205312   -0.024612486
      5        6          -0.045986154   -0.016580489    0.045302021
      6        6          -0.023669328   -0.035918266    0.050472799
      7        6          -0.036663310    0.025842100   -0.010623447
      8        6           0.003658954    0.027119996   -0.037094295
      9        1          -0.001552018   -0.005849832    0.006366938
     10        1           0.000194958    0.006461184   -0.006698943
     11        1          -0.006505537    0.006248832   -0.002300184
     12        1           0.006712370   -0.005587920    0.000941507
     13        1           0.016145238    0.008651898    0.009455663
     14        1           0.001882463    0.008199879    0.018818916
     15       16           0.028020943   -0.145112885    0.035678055
     16        1           0.010556388   -0.000943916   -0.015114454
     17        1          -0.018003971   -0.001849049    0.003634931
     18        8           0.009147615    0.016086913    0.014710888
     19        8          -0.042443857    0.106254160   -0.059523954
 -------------------------------------------------------------------
 Cartesian Forces:  Max     0.145112885 RMS     0.034241765

 GradGradGradGradGradGradGradGradGradGradGradGradGradGradGradGradGradGrad
 Berny optimization.
 Search for a local minimum.
 Step number   2 out of a maximum of  114
 All quantities printed in internal units (Hartrees-Bohrs-Radians)
 Update second derivatives using D2CorN and points    1    2
 DE= -4.57D-03 DEPred=-4.57D-03 R= 1.00D+00
 TightC=F SS=  1.41D+00  RLast= 2.00D-02 DXNew= 3.3636D-02 5.9968D-02
 Trust test= 1.00D+00 RLast= 2.00D-02 DXMaxT set to 5.00D-02
 ITU=  1  0
     Eigenvalues ---    0.00085   0.00288   0.00413   0.01269   0.01459
     Eigenvalues ---    0.01514   0.02378   0.02494   0.02604   0.03436
     Eigenvalues ---    0.04022   0.04171   0.04674   0.04768   0.05007
     Eigenvalues ---    0.05230   0.05441   0.06339   0.06393   0.09030
     Eigenvalues ---    0.09694   0.10442   0.10663   0.13035   0.13154
     Eigenvalues ---    0.15296   0.17215   0.19467   0.22915   0.23252
     Eigenvalues ---    0.25570   0.25594   0.30936   0.32004   0.34903
     Eigenvalues ---    0.46556   0.48653   0.49368   0.50066   0.58607
     Eigenvalues ---    0.60451   0.61646   0.63733   0.63972   0.67856
     Eigenvalues ---    0.67871   0.70486   0.97527   0.98471   1.23180
     Eigenvalues ---    1.30443
 RFO step:  Lambda=-5.46736609D-02 EMin= 8.50957074D-04
 Quartic linear search produced a step of  2.00000.
 Maximum step size (   0.050) exceeded in Quadratic search.
    -- Step size scaled by   0.080
 B after Tr=     0.000190   -0.000983    0.000242
         Rot=    1.000000   -0.000027   -0.000001    0.000018 Ang=   0.00 deg.
 Variable       Old X    -DE/DX   Delta X   Delta X   Delta X     New X
                                 (Linear)    (Quad)   (Total)
    X1       -0.32438   0.00664   0.00070  -0.00146  -0.00064  -0.32502
    Y1       -2.08870   0.02728   0.00218   0.00289   0.00408  -2.08462
    Z1        0.30042  -0.02406  -0.00202  -0.00318  -0.00507   0.29535
    X2       -2.51824  -0.02590  -0.00223  -0.00247  -0.00457  -2.52281
    Y2       -2.15823   0.02625   0.00209   0.00286   0.00396  -2.15427
    Z2        1.74065  -0.00270  -0.00009  -0.00252  -0.00248   1.73817
    X3       -4.66422   0.05726   0.01024  -0.00513   0.00530  -4.65892
    Y3       -0.29191  -0.03335  -0.00641   0.00639  -0.00091  -0.29283
    Z3        1.24489  -0.00265   0.00017  -0.00342  -0.00301   1.24188
    X4       -4.37918   0.06051   0.01019  -0.00479   0.00564  -4.37354
    Y4        1.44366  -0.01321  -0.00346   0.00769   0.00344   1.44710
    Z4       -0.64125  -0.02461  -0.00280  -0.00407  -0.00655  -0.64780
    X5       -1.92957  -0.04599  -0.00646  -0.00217  -0.00839  -1.93796
    Y5        1.52129  -0.01658  -0.00398   0.00777   0.00299   1.52429
    Z5       -2.24938   0.04530   0.00813  -0.00579   0.00266  -2.24672
    X6       -0.01029  -0.02367  -0.00362  -0.00138  -0.00482  -0.01511
    Y6       -0.14442  -0.03592  -0.00685   0.00650  -0.00123  -0.14566
    Z6       -1.81033   0.05047   0.00927  -0.00588   0.00363  -1.80670
    X7        1.62566  -0.03666  -0.00471  -0.00168  -0.00635   1.61931
    Y7       -4.14471   0.02584   0.00275  -0.00040   0.00126  -4.14345
    Z7        1.10019  -0.01062  -0.00199   0.00420   0.00222   1.10241
    X8       -2.46746   0.00366  -0.00008   0.00453   0.00450  -2.46296
    Y8       -4.27443   0.02712   0.00290  -0.00020   0.00160  -4.27283
    Z8        3.78725  -0.03709  -0.00503   0.00012  -0.00490   3.78235
    X9       -6.35757  -0.00155   0.00440  -0.00986  -0.00528  -6.36285
    Y9       -0.34244  -0.00585  -0.00198   0.00773   0.00487  -0.33757
    Z9        2.35255   0.00637  -0.00100  -0.00039  -0.00116   2.35139
   X10       -5.86530   0.00019   0.00438  -0.01051  -0.00584  -5.87114
   Y10        2.76663   0.00646  -0.00236   0.01009   0.00701   2.77364
   Z10       -1.01406  -0.00670  -0.00059  -0.00148  -0.00167  -1.01574
   X11       -1.74046  -0.00651  -0.00217   0.00236   0.00047  -1.73998
   Y11        2.89735   0.00625  -0.00257   0.01050   0.00721   2.90456
   Z11       -3.72195  -0.00230   0.00371  -0.00993  -0.00582  -3.72777
   X12        1.67925   0.00671  -0.00257   0.00321   0.00082   1.68007
   Y12       -0.08774  -0.00559  -0.00220   0.00815   0.00506  -0.08268
   Z12       -2.92348   0.00094   0.00358  -0.00897  -0.00516  -2.92865
   X13        2.83483   0.01615   0.00125  -0.00102   0.00030   2.83513
   Y13       -3.42273   0.00865   0.00169  -0.00051  -0.00005  -3.42278
   Z13        2.55393   0.00946  -0.00076   0.00690   0.00620   2.56013
   X14       -1.64613   0.00188  -0.00126   0.00676   0.00557  -1.64057
   Y14       -3.56475   0.00820   0.00161  -0.00027   0.00012  -3.56462
   Z14        5.49561   0.01882   0.00089   0.00179   0.00274   5.49835
   X15       -0.47671   0.02802   0.00170   0.00649   0.00816  -0.46856
   Y15       -6.40840  -0.14511  -0.01071  -0.01499  -0.02679  -6.43518
   Z15        2.25255   0.03568   0.00208   0.00916   0.01113   2.26368
   X16        2.80211   0.01056  -0.00008   0.00355   0.00349   2.80559
   Y16       -4.84391  -0.00094   0.00228  -0.00741  -0.00620  -4.85011
   Z16       -0.39066  -0.01511  -0.00284   0.00828   0.00542  -0.38524
   X17       -4.27012  -0.01800  -0.00267   0.00651   0.00386  -4.26626
   Y17       -5.06805  -0.00185   0.00219  -0.00732  -0.00618  -5.07423
   Z17        4.25213   0.00363  -0.00114   0.00634   0.00517   4.25731
   X18       -1.82135   0.00915   0.00046   0.00313   0.00351  -1.81784
   Y18       -7.61644   0.01609  -0.00070   0.00257   0.00094  -7.61550
   Z18        0.14598   0.01471   0.00067   0.00489   0.00539   0.15137
   X19        0.75820  -0.04244  -0.00746   0.00186  -0.00571   0.75248
   Y19       -8.68564   0.10625   0.02354  -0.02350  -0.00118  -8.68682
   Z19        4.02371  -0.05952  -0.01023   0.00170  -0.00876   4.01496
         Item               Value     Threshold  Converged?
 Maximum Force            0.145113     0.000015     NO 
 RMS     Force            0.034242     0.000010     NO 
 Maximum Displacement     0.026786     0.000060     NO 
 RMS     Displacement     0.005929     0.000040     NO 
 Predicted change in Energy=-7.527657D-03
 GradGradGradGradGradGradGradGradGradGradGradGradGradGradGradGradGradGrad

                          Input orientation:                          
 ---------------------------------------------------------------------
 Center     Atomic      Atomic             Coordinates (Angstroms)
 Number     Number       Type             X           Y           Z
 ---------------------------------------------------------------------
      1          6           0       -0.171991   -1.103133    0.156294
      2          6           0       -1.335014   -1.139991    0.919798
      3          6           0       -2.465396   -0.154958    0.657174
      4          6           0       -2.314379    0.765771   -0.342801
      5          6           0       -1.025526    0.806618   -1.188911
      6          6           0       -0.007998   -0.077077   -0.956065
      7          6           0        0.856904   -2.192622    0.583370
      8          6           0       -1.303342   -2.261084    2.001534
      9          1           0       -3.367074   -0.178636    1.244304
     10          1           0       -3.106873    1.467746   -0.537506
     11          1           0       -0.920759    1.537028   -1.972651
     12          1           0        0.889057   -0.043750   -1.549772
     13          1           0        1.500287   -1.811257    1.354765
     14          1           0       -0.868150   -1.886318    2.909603
     15         16           0       -0.247950   -3.405352    1.197887
     16          1           0        1.484656   -2.566567   -0.203862
     17          1           0       -2.257609   -2.685167    2.252870
     18          8           0       -0.961962   -4.029949    0.080103
     19          8           0        0.398198   -4.596870    2.124623
 ---------------------------------------------------------------------
                    Distance matrix (angstroms):
                    1          2          3          4          5
     1  C    0.000000
     2  C    1.391733   0.000000
     3  C    2.531723   1.522178   0.000000
     4  C    2.886472   2.487015   1.367662   0.000000
     5  C    2.487015   2.886472   2.530984   1.542307   0.000000
     6  C    1.522178   2.531723   2.940648   2.530984   1.367662
     7  C    1.558206   2.454734   3.898102   4.434740   3.959793
     8  C    2.454734   1.558206   2.755621   3.959793   4.434740
     9  H    3.499574   2.271294   1.076246   2.125788   3.517685
    10  H    3.962866   3.473256   2.114691   1.076441   2.278909
    11  H    3.473256   3.962866   3.487793   2.278908   1.076441
    12  H    2.271294   3.499574   4.016881   3.517685   2.125788
    13  H    2.175842   2.945968   4.353919   4.906576   4.438839
    14  H    2.945968   2.175842   3.259178   4.438839   4.906576
    15  S    2.528023   2.528023   3.971713   4.903276   4.903276
    16  H    2.239605   3.353844   4.707457   5.055338   4.318531
    17  H    3.353844   2.239605   2.998563   4.318531   5.055338
    18  O    3.032509   3.032509   4.196294   5.000681   5.000681
    19  O    4.050387   4.050387   5.484903   6.496474   6.496474
                    6          7          8          9         10
     6  C    0.000000
     7  C    2.755621   0.000000
     8  C    3.898102   2.585060   0.000000
     9  H    4.016881   4.725988   3.028033   0.000000
    10  H    3.487793   5.510552   4.858356   2.439902   0.000000
    11  H    2.114691   4.858356   5.510552   4.390531   2.616016
    12  H    1.076246   3.028033   4.725988   5.093104   4.390531
    13  H    3.259178   1.074445   2.912214   5.135062   5.963093
    14  H    4.353918   2.912214   1.074445   3.454565   5.305109
    15  S    3.971713   1.751870   1.751870   4.488072   5.910339
    16  H    2.998563   1.074077   3.567915   5.598096   6.121204
    17  H    4.707457   3.567915   1.074077   2.920756   5.074853
    18  O    4.196294   2.633879   2.633879   4.687488   5.933526
    19  O    5.484903   2.892452   2.892452   5.871373   7.493465
                   11         12         13         14         15
    11  H    0.000000
    12  H    2.439902   0.000000
    13  H    5.305109   3.454565   0.000000
    14  H    5.963093   5.135062   2.834194   0.000000
    15  S    5.910339   4.488072   2.371093   2.371093   0.000000
    16  H    5.074853   2.920756   1.732066   3.961325   2.381257
    17  H    6.121204   5.598096   3.961325   1.732066   2.381257
    18  O    5.933526   4.687488   3.551060   3.551060   1.466075
    19  O    7.493465   5.871373   3.093044   3.093044   1.641969
                   16         17         18         19
    16  H    0.000000
    17  H    4.478185   0.000000
    18  O    2.864971   2.864971   0.000000
    19  O    3.274808   3.274807   2.520217   0.000000
 Symmetry turned off by external request.
 Stoichiometry    C8H8O2S
 Framework group  C1[X(C8H8O2S)]
 Deg. of freedom    51
 Full point group                 C1      NOp   1
 Rotational constants (GHZ):           2.4663817           0.6623042           0.5909152
 Standard basis: VSTO-6G (5D, 7F)
    57 basis functions,   348 primitive gaussians,    58 cartesian basis functions
    29 alpha electrons       29 beta electrons
       nuclear repulsion energy       337.1540129796 Hartrees.
 Integral buffers will be    131072 words long.
 Regular integral format.
 Two-electron integral symmetry is turned off.
 Do NDO integrals.
 One-electron integrals computed using PRISM.
 NBasis=    57 RedAO= F EigKep=  0.00D+00  NBF=    57
 NBsUse=    57 1.00D-04 EigRej=  0.00D+00 NBFU=    57
 Initial guess from the checkpoint file:  "C:\Users\al6323\OneDrive - Imperial College London\Desktop\TSR20251115\product_opt+freq.chk"
 B after Tr=     0.000824   -0.003709    0.001076
         Rot=    1.000000   -0.000031   -0.000001    0.000020 Ang=   0.00 deg.
 Keep J ints in memory in canonical form, NReq=1859402.
 Overlap will be assumed to be unity.
 Requested convergence on RMS density matrix=1.00D-08 within  32 cycles.
 Requested convergence on MAX density matrix=1.00D-06.
 Requested convergence on             energy=1.00D-06.
 No special actions if energy rises.
 SCF Done:  E(RPM6) = -0.199266713172E-01 A.U. after   12 cycles
            NFock= 11  Conv=0.87D-08     -V/T= 0.9998
 QCSCF skips out because SCF is already converged.
 Calling FoFJK, ICntrl=      2127 FMM=F ISym2X=0 I1Cent= 0 IOpClX= 0 NMat=1 NMatS=1 NMatT=0.
 -------------------------------------------------------------------
 Center     Atomic                   Forces (Hartrees/Bohr)
 Number     Number              X              Y              Z
 -------------------------------------------------------------------
      1        6           0.006061230    0.024587823   -0.021859025
      2        6          -0.023534983    0.023649805   -0.002429524
      3        6           0.054165645   -0.031767500   -0.002274565
      4        6           0.056868546   -0.012749893   -0.022779481
      5        6          -0.042880197   -0.015911152    0.042703868
      6        6          -0.022165481   -0.034186622    0.047835493
      7        6          -0.033863345    0.023513638   -0.009947440
      8        6           0.003271166    0.024690515   -0.034325587
      9        1           0.000585193   -0.005720342    0.004873300
     10        1           0.002027370    0.004711906   -0.006128991
     11        1          -0.006632392    0.004437465   -0.000444021
     12        1           0.004489358   -0.005596610    0.002310296
     13        1           0.014409708    0.008247732    0.008038281
     14        1           0.001289219    0.007831900    0.016651633
     15       16           0.024925254   -0.130221486    0.031681410
     16        1           0.009148081    0.000014511   -0.013995895
     17        1          -0.016462168   -0.000797124    0.002816777
     18        8           0.008238404    0.013425221    0.013197393
     19        8          -0.039940608    0.101840213   -0.055923922
 -------------------------------------------------------------------
 Cartesian Forces:  Max     0.130221486 RMS     0.031662428

 GradGradGradGradGradGradGradGradGradGradGradGradGradGradGradGradGradGrad
 Berny optimization.
 Search for a local minimum.
 Step number   3 out of a maximum of  114
 All quantities printed in internal units (Hartrees-Bohrs-Radians)
 Update second derivatives using D2CorN and points    1    2    3
 DE= -7.52D-03 DEPred=-7.53D-03 R= 9.99D-01
 TightC=F SS=  1.41D+00  RLast= 4.48D-02 DXNew= 8.4090D-02 1.3430D-01
 Trust test= 9.99D-01 RLast= 4.48D-02 DXMaxT set to 8.41D-02
 ITU=  1  1  0
 Linear search step of   0.090 exceeds DXMaxT=   0.084 but not scaled.
 Quartic linear search produced a step of  2.00000.
 B after Tr=     0.000000    0.000000    0.000000
         Rot=    1.000000    0.000000    0.000000    0.000000 Ang=   0.00 deg.
 Variable       Old X    -DE/DX   Delta X   Delta X   Delta X     New X
                                 (Linear)    (Quad)   (Total)
    X1       -0.32502   0.00606  -0.00127   0.00000  -0.00127  -0.32629
    Y1       -2.08462   0.02459   0.00817   0.00000   0.00817  -2.07645
    Z1        0.29535  -0.02186  -0.01013   0.00000  -0.01013   0.28522
    X2       -2.52281  -0.02353  -0.00915   0.00000  -0.00915  -2.53196
    Y2       -2.15427   0.02365   0.00792   0.00000   0.00792  -2.14635
    Z2        1.73817  -0.00243  -0.00497   0.00000  -0.00497   1.73320
    X3       -4.65892   0.05417   0.01060   0.00000   0.01060  -4.64832
    Y3       -0.29283  -0.03177  -0.00183   0.00000  -0.00183  -0.29466
    Z3        1.24188  -0.00227  -0.00603   0.00000  -0.00603   1.23585
    X4       -4.37354   0.05687   0.01128   0.00000   0.01128  -4.36226
    Y4        1.44710  -0.01275   0.00687   0.00000   0.00687   1.45397
    Z4       -0.64780  -0.02278  -0.01310   0.00000  -0.01310  -0.66090
    X5       -1.93796  -0.04288  -0.01679   0.00000  -0.01679  -1.95475
    Y5        1.52429  -0.01591   0.00598   0.00000   0.00598   1.53027
    Z5       -2.24672   0.04270   0.00533   0.00000   0.00533  -2.24139
    X6       -0.01511  -0.02217  -0.00965   0.00000  -0.00965  -0.02476
    Y6       -0.14566  -0.03419  -0.00247   0.00000  -0.00247  -0.14812
    Z6       -1.80670   0.04784   0.00727   0.00000   0.00727  -1.79944
    X7        1.61931  -0.03386  -0.01269   0.00000  -0.01269   1.60662
    Y7       -4.14345   0.02351   0.00252   0.00000   0.00252  -4.14094
    Z7        1.10241  -0.00995   0.00444   0.00000   0.00444   1.10686
    X8       -2.46296   0.00327   0.00900   0.00000   0.00900  -2.45396
    Y8       -4.27283   0.02469   0.00321   0.00000   0.00321  -4.26963
    Z8        3.78235  -0.03433  -0.00979   0.00000  -0.00979   3.77256
    X9       -6.36285   0.00059  -0.01056   0.00000  -0.01056  -6.37341
    Y9       -0.33757  -0.00572   0.00974   0.00000   0.00974  -0.32783
    Z9        2.35139   0.00487  -0.00231   0.00000  -0.00231   2.34908
   X10       -5.87114   0.00203  -0.01169   0.00000  -0.01169  -5.88283
   Y10        2.77364   0.00471   0.01402   0.00000   0.01402   2.78765
   Z10       -1.01574  -0.00613  -0.00335   0.00000  -0.00335  -1.01909
   X11       -1.73998  -0.00663   0.00095   0.00000   0.00095  -1.73904
   Y11        2.90456   0.00444   0.01442   0.00000   0.01442   2.91898
   Z11       -3.72777  -0.00044  -0.01164   0.00000  -0.01164  -3.73941
   X12        1.68007   0.00449   0.00164   0.00000   0.00164   1.68171
   Y12       -0.08268  -0.00560   0.01013   0.00000   0.01013  -0.07255
   Z12       -2.92865   0.00231  -0.01032   0.00000  -0.01032  -2.93897
   X13        2.83513   0.01441   0.00060   0.00000   0.00060   2.83573
   Y13       -3.42278   0.00825  -0.00009   0.00000  -0.00009  -3.42287
   Z13        2.56013   0.00804   0.01240   0.00000   0.01240   2.57254
   X14       -1.64057   0.00129   0.01114   0.00000   0.01114  -1.62943
   Y14       -3.56462   0.00783   0.00024   0.00000   0.00024  -3.56438
   Z14        5.49835   0.01665   0.00548   0.00000   0.00548   5.50384
   X15       -0.46856   0.02493   0.01631   0.00000   0.01631  -0.45224
   Y15       -6.43518  -0.13022  -0.05357   0.00000  -0.05357  -6.48876
   Z15        2.26368   0.03168   0.02226   0.00000   0.02226   2.28594
   X16        2.80559   0.00915   0.00697   0.00000   0.00697   2.81257
   Y16       -4.85011   0.00001  -0.01239   0.00000  -0.01239  -4.86250
   Z16       -0.38524  -0.01400   0.01084   0.00000   0.01084  -0.37441
   X17       -4.26626  -0.01646   0.00772   0.00000   0.00772  -4.25854
   Y17       -5.07423  -0.00080  -0.01237   0.00000  -0.01237  -5.08660
   Z17        4.25731   0.00282   0.01035   0.00000   0.01035   4.26766
   X18       -1.81784   0.00824   0.00702   0.00000   0.00702  -1.81083
   Y18       -7.61550   0.01343   0.00188   0.00000   0.00188  -7.61362
   Z18        0.15137   0.01320   0.01078   0.00000   0.01078   0.16216
   X19        0.75248  -0.03994  -0.01142   0.00000  -0.01142   0.74106
   Y19       -8.68682   0.10184  -0.00237   0.00000  -0.00237  -8.68919
   Z19        4.01496  -0.05592  -0.01752   0.00000  -0.01752   3.99744
         Item               Value     Threshold  Converged?
 Maximum Force            0.130221     0.000015     NO 
 RMS     Force            0.031662     0.000010     NO 
 Maximum Displacement     0.053573     0.000060     NO 
 RMS     Displacement     0.011859     0.000040     NO 
 Predicted change in Energy=-1.264363D-02
 GradGradGradGradGradGradGradGradGradGradGradGradGradGradGradGradGradGrad

                          Input orientation:                          
 ---------------------------------------------------------------------
 Center     Atomic      Atomic             Coordinates (Angstroms)
 Number     Number       Type             X           Y           Z
 ---------------------------------------------------------------------
      1          6           0       -0.172666   -1.098811    0.150932
      2          6           0       -1.339854   -1.135802    0.917170
      3          6           0       -2.459787   -0.155925    0.653985
      4          6           0       -2.308409    0.769409   -0.349733
      5          6           0       -1.034411    0.809784   -1.186091
      6          6           0       -0.013104   -0.078384   -0.952220
      7          6           0        0.850188   -2.191290    0.585722
      8          6           0       -1.298580   -2.259388    1.996351
      9          1           0       -3.372663   -0.173481    1.243081
     10          1           0       -3.113058    1.475163   -0.539278
     11          1           0       -0.920259    1.544658   -1.978812
     12          1           0        0.889924   -0.038390   -1.555234
     13          1           0        1.500604   -1.811306    1.361327
     14          1           0       -0.862257   -1.886189    2.912504
     15         16           0       -0.239318   -3.433702    1.209669
     16          1           0        1.488346   -2.573123   -0.198127
     17          1           0       -2.253525   -2.691711    2.258347
     18          8           0       -0.958248   -4.028956    0.085809
     19          8           0        0.392152   -4.598124    2.115355
 ---------------------------------------------------------------------
                    Distance matrix (angstroms):
                    1          2          3          4          5
     1  C    0.000000
     2  C    1.396717   0.000000
     3  C    2.524484   1.511184   0.000000
     4  C    2.881373   2.484547   1.373538   0.000000
     5  C    2.484547   2.881373   2.519955   1.524531   0.000000
     6  C    1.511184   2.524484   2.927827   2.519955   1.373538
     7  C    1.558455   2.453609   3.886297   4.429170   3.962005
     8  C    2.453608   1.558455   2.752255   3.962005   4.429170
     9  H    3.505568   2.272574   1.086593   2.135119   3.512137
    10  H    3.968330   3.476008   2.123932   1.086957   2.276372
    11  H    3.476008   3.968329   3.491955   2.276372   1.086957
    12  H    2.272574   3.505568   4.014353   3.512137   2.135119
    13  H    2.184613   2.953266   4.350324   4.908808   4.448118
    14  H    2.953266   2.184613   3.262947   4.448117   4.908807
    15  S    2.564581   2.564581   3.997886   4.937511   4.937511
    16  H    2.248199   3.362811   4.707091   5.060717   4.334102
    17  H    3.362811   2.248200   3.007779   4.334103   5.060718
    18  O    3.034324   3.034324   4.192590   5.003692   5.003692
    19  O    4.052550   4.052550   5.477435   6.494621   6.494621
                    6          7          8          9         10
     6  C    0.000000
     7  C    2.752255   0.000000
     8  C    3.886297   2.571326   0.000000
     9  H    4.014353   4.726113   3.036486   0.000000
    10  H    3.491955   5.515054   4.865041   2.441766   0.000000
    11  H    2.123932   4.865041   5.515054   4.398508   2.624015
    12  H    1.086593   3.036486   4.726113   5.100830   4.398509
    13  H    3.262948   1.081199   2.905076   5.142488   5.974868
    14  H    4.350323   2.905076   1.081199   3.467345   5.317856
    15  S    3.997886   1.766329   1.766329   4.521948   5.950979
    16  H    3.007779   1.080492   3.561057   5.609347   6.138235
    17  H    4.707091   3.561057   1.080492   2.936787   5.091988
    18  O    4.192591   2.626284   2.626284   4.693971   5.943843
    19  O    5.477435   2.888325   2.888325   5.874705   7.497892
                   11         12         13         14         15
    11  H    0.000000
    12  H    2.441766   0.000000
    13  H    5.317856   3.467346   0.000000
    14  H    5.974867   5.142488   2.827520   0.000000
    15  S    5.950979   4.521948   2.383799   2.383799   0.000000
    16  H    5.091988   2.936787   1.735631   3.958945   2.388997
    17  H    6.138235   5.609348   3.958944   1.735631   2.388997
    18  O    5.943843   4.693972   3.548361   3.548361   1.460906
    19  O    7.497892   5.874706   3.092503   3.092504   1.604650
                   16         17         18         19
    16  H    0.000000
    17  H    4.477715   0.000000
    18  O    2.861099   2.861099   0.000000
    19  O    3.264118   3.264118   2.503315   0.000000
 Symmetry turned off by external request.
 Stoichiometry    C8H8O2S
 Framework group  C1[X(C8H8O2S)]
 Deg. of freedom    51
 Full point group                 C1      NOp   1
 Rotational constants (GHZ):           2.4848800           0.6591786           0.5888615
 Standard basis: VSTO-6G (5D, 7F)
    57 basis functions,   348 primitive gaussians,    58 cartesian basis functions
    29 alpha electrons       29 beta electrons
       nuclear repulsion energy       337.1353117009 Hartrees.
 Integral buffers will be    131072 words long.
 Regular integral format.
 Two-electron integral symmetry is turned off.
 Do NDO integrals.
 One-electron integrals computed using PRISM.
 NBasis=    57 RedAO= F EigKep=  0.00D+00  NBF=    57
 NBsUse=    57 1.00D-04 EigRej=  0.00D+00 NBFU=    57
 Initial guess from the checkpoint file:  "C:\Users\al6323\OneDrive - Imperial College London\Desktop\TSR20251115\product_opt+freq.chk"
 B after Tr=     0.001648   -0.007417    0.002152
         Rot=    1.000000   -0.000062   -0.000002    0.000041 Ang=  -0.01 deg.
 Keep J ints in memory in canonical form, NReq=1859402.
 Overlap will be assumed to be unity.
 Requested convergence on RMS density matrix=1.00D-08 within  32 cycles.
 Requested convergence on MAX density matrix=1.00D-06.
 Requested convergence on             energy=1.00D-06.
 No special actions if energy rises.
 SCF Done:  E(RPM6) = -0.325334852232E-01 A.U. after   13 cycles
            NFock= 12  Conv=0.43D-08     -V/T= 0.9997
 QCSCF skips out because SCF is already converged.
 Calling FoFJK, ICntrl=      2127 FMM=F ISym2X=0 I1Cent= 0 IOpClX= 0 NMat=1 NMatS=1 NMatT=0.
 -------------------------------------------------------------------
 Center     Atomic                   Forces (Hartrees/Bohr)
 Number     Number              X              Y              Z
 -------------------------------------------------------------------
      1        6           0.005165781    0.019369533   -0.017694225
      2        6          -0.019130059    0.018599452   -0.001744167
      3        6           0.047938064   -0.028809739   -0.001276217
      4        6           0.049356474   -0.011635406   -0.019165634
      5        6          -0.036636167   -0.014360710    0.037287078
      6        6          -0.018910736   -0.030928396    0.042608845
      7        6          -0.027964534    0.018998102   -0.008701144
      8        6           0.002273845    0.019956438   -0.028552104
      9        1           0.004822501   -0.005508526    0.001951637
     10        1           0.005674572    0.001277024   -0.005048504
     11        1          -0.006936408    0.000877370    0.003230348
     12        1           0.000120304   -0.005657536    0.005038592
     13        1           0.010963645    0.007443584    0.005244194
     14        1           0.000129925    0.007100204    0.012356303
     15       16           0.017924777   -0.099867651    0.022483191
     16        1           0.006307459    0.001931101   -0.011785202
     17        1          -0.013393253    0.001306756    0.001147931
     18        8           0.006466790    0.008297401    0.010251180
     19        8          -0.034172980    0.091610999   -0.047632102
 -------------------------------------------------------------------
 Cartesian Forces:  Max     0.099867651 RMS     0.026442214

 GradGradGradGradGradGradGradGradGradGradGradGradGradGradGradGradGradGrad
 Berny optimization.
 Search for a local minimum.
 Step number   4 out of a maximum of  114
 All quantities printed in internal units (Hartrees-Bohrs-Radians)
 Update second derivatives using D2CorN and points    1    3    4
 ITU=  0  1  1  0
 Linear search step of   0.179 exceeds DXMaxT=   0.084 scaled by   0.939
 Quartic linear search produced a step of  1.87844.
 B after Tr=     0.000000    0.000000    0.000000
         Rot=    1.000000    0.000000    0.000000    0.000000 Ang=   0.00 deg.
 Variable       Old X    -DE/DX   Delta X   Delta X   Delta X     New X
                                 (Linear)    (Quad)   (Total)
    X1       -0.32629   0.00517  -0.00239   0.00000  -0.00239  -0.32869
    Y1       -2.07645   0.01937   0.01534   0.00000   0.01534  -2.06111
    Z1        0.28522  -0.01769  -0.01903   0.00000  -0.01903   0.26619
    X2       -2.53196  -0.01913  -0.01718   0.00000  -0.01718  -2.54914
    Y2       -2.14635   0.01860   0.01487   0.00000   0.01487  -2.13148
    Z2        1.73320  -0.00174  -0.00933   0.00000  -0.00933   1.72387
    X3       -4.64832   0.04794   0.01991   0.00000   0.01991  -4.62842
    Y3       -0.29466  -0.02881  -0.00343   0.00000  -0.00343  -0.29809
    Z3        1.23585  -0.00128  -0.01132   0.00000  -0.01132   1.22453
    X4       -4.36226   0.04936   0.02119   0.00000   0.02119  -4.34107
    Y4        1.45397  -0.01164   0.01291   0.00000   0.01291   1.46688
    Z4       -0.66090  -0.01917  -0.02461   0.00000  -0.02461  -0.68551
    X5       -1.95475  -0.03664  -0.03154   0.00000  -0.03154  -1.98629
    Y5        1.53027  -0.01436   0.01124   0.00000   0.01124   1.54151
    Z5       -2.24139   0.03729   0.01001   0.00000   0.01001  -2.23138
    X6       -0.02476  -0.01891  -0.01812   0.00000  -0.01812  -0.04289
    Y6       -0.14812  -0.03093  -0.00464   0.00000  -0.00464  -0.15276
    Z6       -1.79944   0.04261   0.01365   0.00000   0.01365  -1.78579
    X7        1.60662  -0.02796  -0.02384   0.00000  -0.02384   1.58278
    Y7       -4.14094   0.01900   0.00473   0.00000   0.00473  -4.13621
    Z7        1.10686  -0.00870   0.00835   0.00000   0.00835   1.11520
    X8       -2.45396   0.00227   0.01690   0.00000   0.01690  -2.43706
    Y8       -4.26963   0.01996   0.00602   0.00000   0.00602  -4.26360
    Z8        3.77256  -0.02855  -0.01840   0.00000  -0.01840   3.75416
    X9       -6.37341   0.00482  -0.01984   0.00000  -0.01984  -6.39325
    Y9       -0.32783  -0.00551   0.01830   0.00000   0.01830  -0.30953
    Z9        2.34908   0.00195  -0.00434   0.00000  -0.00434   2.34474
   X10       -5.88283   0.00567  -0.02195   0.00000  -0.02195  -5.90478
   Y10        2.78765   0.00128   0.02633   0.00000   0.02633   2.81398
   Z10       -1.01909  -0.00505  -0.00629   0.00000  -0.00629  -1.02538
   X11       -1.73904  -0.00694   0.00178   0.00000   0.00178  -1.73726
   Y11        2.91898   0.00088   0.02708   0.00000   0.02708   2.94606
   Z11       -3.73941   0.00323  -0.02187   0.00000  -0.02187  -3.76128
   X12        1.68171   0.00012   0.00308   0.00000   0.00308   1.68479
   Y12       -0.07255  -0.00566   0.01903   0.00000   0.01903  -0.05352
   Z12       -2.93897   0.00504  -0.01939   0.00000  -0.01939  -2.95835
   X13        2.83573   0.01096   0.00112   0.00000   0.00112   2.83685
   Y13       -3.42287   0.00744  -0.00017   0.00000  -0.00017  -3.42304
   Z13        2.57254   0.00524   0.02329   0.00000   0.02329   2.59583
   X14       -1.62943   0.00013   0.02092   0.00000   0.02092  -1.60851
   Y14       -3.56438   0.00710   0.00046   0.00000   0.00046  -3.56392
   Z14        5.50384   0.01236   0.01030   0.00000   0.01030   5.51413
   X15       -0.45224   0.01792   0.03064   0.00000   0.03064  -0.42160
   Y15       -6.48876  -0.09987  -0.10063   0.00000  -0.10063  -6.58939
   Z15        2.28594   0.02248   0.04182   0.00000   0.04182   2.32776
   X16        2.81257   0.00631   0.01310   0.00000   0.01310   2.82567
   Y16       -4.86250   0.00193  -0.02327   0.00000  -0.02327  -4.88577
   Z16       -0.37441  -0.01179   0.02036   0.00000   0.02036  -0.35405
   X17       -4.25854  -0.01339   0.01450   0.00000   0.01450  -4.24405
   Y17       -5.08660   0.00131  -0.02323   0.00000  -0.02323  -5.10983
   Z17        4.26766   0.00115   0.01944   0.00000   0.01944   4.28710
   X18       -1.81083   0.00647   0.01318   0.00000   0.01318  -1.79764
   Y18       -7.61362   0.00830   0.00353   0.00000   0.00353  -7.61010
   Z18        0.16216   0.01025   0.02026   0.00000   0.02026   0.18241
   X19        0.74106  -0.03417  -0.02146   0.00000  -0.02146   0.71960
   Y19       -8.68919   0.09161  -0.00445   0.00000  -0.00445  -8.69365
   Z19        3.99744  -0.04763  -0.03290   0.00000  -0.03290   3.96454
         Item               Value     Threshold  Converged?
 Maximum Force            0.099868     0.000015     NO 
 RMS     Force            0.026442     0.000010     NO 
 Maximum Displacement     0.100633     0.000060     NO 
 RMS     Displacement     0.022276     0.000040     NO 
 Predicted change in Energy=-1.476193D-02
 GradGradGradGradGradGradGradGradGradGradGradGradGradGradGradGradGradGrad

                          Input orientation:                          
 ---------------------------------------------------------------------
 Center     Atomic      Atomic             Coordinates (Angstroms)
 Number     Number       Type             X           Y           Z
 ---------------------------------------------------------------------
      1          6           0       -0.173933   -1.090694    0.140860
      2          6           0       -1.348945   -1.127933    0.912234
      3          6           0       -2.449252   -0.157743    0.647995
      4          6           0       -2.297196    0.776241   -0.362755
      5          6           0       -1.051100    0.815733   -1.180794
      6          6           0       -0.022694   -0.080839   -0.944998
      7          6           0        0.837573   -2.188787    0.590141
      8          6           0       -1.289635   -2.256202    1.986616
      9          1           0       -3.383161   -0.163797    1.240783
     10          1           0       -3.124676    1.489096   -0.542607
     11          1           0       -0.919320    1.558989   -1.990383
     12          1           0        0.891553   -0.028322   -1.565494
     13          1           0        1.501198   -1.811396    1.373654
     14          1           0       -0.851187   -1.885946    2.917953
     15         16           0       -0.223102   -3.486955    1.231799
     16          1           0        1.495279   -2.585439   -0.187355
     17          1           0       -2.245852   -2.704004    2.268635
     18          8           0       -0.951270   -4.027090    0.096528
     19          8           0        0.380797   -4.600479    2.097944
 ---------------------------------------------------------------------
                    Distance matrix (angstroms):
                    1          2          3          4          5
     1  C    0.000000
     2  C    1.406079   0.000000
     3  C    2.510908   1.490560   0.000000
     4  C    2.871815   2.480051   1.384579   0.000000
     5  C    2.480052   2.871814   2.499390   1.491141   0.000000
     6  C    1.490560   2.510908   2.903743   2.499390   1.384580
     7  C    1.559104   2.451534   3.864157   4.418844   3.966162
     8  C    2.451533   1.559104   2.745934   3.966161   4.418843
     9  H    3.516833   2.274981   1.106174   2.152749   3.501717
    10  H    3.978609   3.481181   2.141449   1.106902   2.271655
    11  H    3.481181   3.978608   3.499843   2.271654   1.106902
    12  H    2.274981   3.516833   4.009646   3.501718   2.152749
    13  H    2.201194   2.967043   4.343640   4.913123   4.465562
    14  H    2.967043   2.201194   3.270048   4.465560   4.913122
    15  S    2.633368   2.633368   4.047249   5.001930   5.001930
    16  H    2.264566   3.379798   4.706469   5.070950   4.363364
    17  H    3.379799   2.264567   3.025110   4.363365   5.070950
    18  O    3.037867   3.037866   4.185679   5.009435   5.009436
    19  O    4.056660   4.056660   5.463464   6.491210   6.491210
                    6          7          8          9         10
     6  C    0.000000
     7  C    2.745934   0.000000
     8  C    3.864157   2.545526   0.000000
     9  H    4.009646   4.726364   3.052421   0.000000
    10  H    3.499843   5.523527   4.877664   2.445271   0.000000
    11  H    2.141449   4.877664   5.523527   4.413496   2.639041
    12  H    1.106174   3.052422   4.726364   5.115342   4.413496
    13  H    3.270049   1.093945   2.891769   5.156472   5.997000
    14  H    4.343639   2.891770   1.093945   3.491360   5.341829
    15  S    4.047250   1.794992   1.794992   4.585786   6.027332
    16  H    3.025110   1.092891   3.548281   5.630552   6.170253
    17  H    4.706470   3.548281   1.092891   2.966917   5.124207
    18  O    4.185681   2.612082   2.612081   4.706213   5.963262
    19  O    5.463465   2.880690   2.880690   5.881008   7.506249
                   11         12         13         14         15
    11  H    0.000000
    12  H    2.445271   0.000000
    13  H    5.341830   3.491362   0.000000
    14  H    5.996998   5.156472   2.814983   0.000000
    15  S    6.027332   4.585787   2.408491   2.408493   0.000000
    16  H    5.124206   2.966917   1.742392   3.954508   2.404072
    17  H    6.170254   5.630553   3.954507   1.742391   2.404072
    18  O    5.963263   4.706215   3.543296   3.543297   1.452864
    19  O    7.506249   5.881009   3.091743   3.091746   1.534548
                   16         17         18         19
    16  H    0.000000
    17  H    4.476831   0.000000
    18  O    2.853866   2.853865   0.000000
    19  O    3.244233   3.244232   2.471608   0.000000
 Symmetry turned off by external request.
 Stoichiometry    C8H8O2S
 Framework group  C1[X(C8H8O2S)]
 Deg. of freedom    51
 Full point group                 C1      NOp   1
 Rotational constants (GHZ):           2.5199577           0.6532305           0.5849092
 Standard basis: VSTO-6G (5D, 7F)
    57 basis functions,   348 primitive gaussians,    58 cartesian basis functions
    29 alpha electrons       29 beta electrons
       nuclear repulsion energy       337.1146078019 Hartrees.
 Integral buffers will be    131072 words long.
 Regular integral format.
 Two-electron integral symmetry is turned off.
 Do NDO integrals.
 One-electron integrals computed using PRISM.
 NBasis=    57 RedAO= F EigKep=  0.00D+00  NBF=    57
 NBsUse=    57 1.00D-04 EigRej=  0.00D+00 NBFU=    57
 Initial guess from the checkpoint file:  "C:\Users\al6323\OneDrive - Imperial College London\Desktop\TSR20251115\product_opt+freq.chk"
 B after Tr=     0.003092   -0.013932    0.004038
[...]
 97,0.2375826,0.0077422,0.038571,0.0117652,0.1224791,0.1022289,0.048673
 2,-0.0008426,0.0420511,0.2474055,-0.0920414,0.0039245,-0.096008,0.2208
 264,0.2501306,0.0469432,-0.0895133,0.028731,0.1080507,0.0197934,-0.076
 3145,0.0081456,0.2045201,0.3696557,0.0078709,-0.0087582,0.0128649,0.23
 19908,0.0171664,0.0348373,0.047303,0.2163941,0.2255821,0.0422084,-0.02
 11038,0.0134145,0.2328036,0.0116079,-0.073806,0.0194953,0.3562303,3.06
 0866,-0.1356667,0.3965301,-0.2415098,3.9492874,-0.2542858,0.442049,-0.
 129695,3.3722058,0.2744687,-0.0391274,-0.0109341,-0.0481858,0.2298975,
 0.088309,-0.0489265,0.0541014,0.3034271,0.3160412,0.068451,-0.0303075,
 0.1070841,0.2386586,-0.0090057,0.0147336,-0.0145798,0.2564984,-0.99259
 ,-0.1856307,-0.0679178,0.0392919,-1.699685,-0.0105579,-0.0663362,-0.34
 39921,-1.0714621,-1.1894512,0.1310967,-0.3216183,0.0211593,-1.140383,0
 .0316937,-0.3939706,0.1990375,-1.4440203|Polar=80.7016452,-16.4429119,
 95.0904749,-11.1372318,-23.7032328,66.9564884|HyperPolar=-50.3394916,2
 2.7301822,-9.0377766,169.8852378,-38.8750379,16.3382215,-14.7618972,-3
 8.4472823,37.573709,-65.3260065|PG=C01 [X(C8H8O2S1)]|NImag=0||0.524819
 17,-0.11951620,0.58214740,-0.14966126,-0.22565376,0.40992847,-0.210041
 55,0.04256474,0.06263743,0.55134008,-0.04388107,-0.07520244,0.03587061
 ,-0.15699004,0.57973812,0.12372482,-0.01894155,-0.12887653,-0.13999636
 ,-0.20019266,0.38580859,-0.06489571,0.00662148,0.03923475,-0.20355222,
 0.17416747,-0.03379141,0.52411740,0.08396083,0.04170539,-0.07962235,0.
 08101481,-0.20827564,0.05147926,-0.12899719,0.52162859,-0.01541694,-0.
 03058613,0.03575207,0.03203651,-0.00758638,-0.07768829,-0.15207851,-0.
 18753531,0.36944506,-0.04280455,-0.02763673,0.04463283,0.06404108,-0.0
 1268424,-0.02855785,-0.09482492,0.02825258,-0.00072444,0.53112053,-0.0
 2774571,-0.02857127,0.03551143,0.06642847,-0.06817077,0.00949104,-0.06
 733271,-0.20919269,0.14495425,-0.09991249,0.49120997,0.04471036,0.0354
 4317,-0.05660264,-0.08446326,0.05965035,0.01626167,0.06682123,0.084349
 82,-0.16645002,-0.17603737,-0.18333130,0.38329164,0.06286275,0.0680922
 0,-0.08489125,-0.09072931,0.03997158,0.02724552,0.01635059,-0.11219196
 ,0.07278578,-0.24955127,0.05063780,0.08095017,0.54620729,-0.01102048,-
 0.06806455,0.05852224,0.04008044,-0.02422888,-0.01056309,-0.03365053,0
 .03661397,-0.00022141,-0.04575334,-0.08902675,0.04567526,-0.12123023,0
 .48984370,-0.02898708,0.00836047,0.01733460,0.02716769,-0.01049306,-0.
 01302505,0.01728438,0.04957807,-0.03988605,0.14906403,-0.01544091,-0.1
 4904241,-0.17053970,-0.16884738,0.36956911,-0.09441265,-0.07320077,0.0
 7181084,0.01732735,-0.03221782,0.01454875,-0.01596936,0.02994926,-0.01
 248325,-0.06821234,0.00729474,0.04196666,-0.18929897,0.16174466,-0.035
 15435,0.51540976,0.01995413,-0.21817252,0.09718736,-0.10955742,0.03425
 510,0.04834369,0.02801073,-0.08541588,0.04098858,0.08583632,0.04427590
 ,-0.08139663,0.06616014,-0.20063181,0.05426404,-0.11669295,0.52242532,
 0.00598417,0.15625062,-0.17694192,0.06919859,-0.00069547,-0.03902092,-
 0.01111339,0.03975930,-0.02332848,-0.01353319,-0.03159725,0.03701286,0
 .03239165,-0.00634173,-0.08053522,-0.15525241,-0.19589872,0.37736497,-
 0.13059573,0.09553486,-0.02277353,-0.03768014,0.02369332,0.01063124,-0
 .00041255,-0.00009632,0.00358263,-0.00008857,0.00094802,-0.00051200,0.
 00170026,0.00061021,0.00204862,0.00338544,0.00914453,-0.00564533,0.460
 04827,0.08679416,-0.16774410,0.02107765,0.01949678,-0.00817384,-0.0027
 0249,0.00157180,0.00277504,0.00066741,0.00062443,-0.00049671,0.0000683
 9,-0.00009886,0.00006455,0.00398091,0.01818510,-0.03282224,0.01496575,
 -0.05694239,0.43165146,-0.01659538,0.01553319,-0.06049701,0.01359705,-
 0.00536315,0.00066426,0.00240438,0.00172581,0.00238844,-0.00028394,-0.
 00013717,0.00043582,0.00254875,0.00353176,0.00149854,-0.01203354,0.020
 69801,-0.00232267,-0.00023095,0.01107086,0.38854968,-0.01311566,-0.015
 21239,0.02254932,-0.05570346,-0.01903398,0.01069863,0.00397889,0.01734
 741,-0.01181728,-0.00044125,0.00292631,0.00176776,0.00067217,-0.000450
 54,-0.00000681,-0.00030046,0.00141530,0.00244521,-0.01374509,0.0024355
 2,0.01417998,0.39715499,-0.01101540,-0.01039962,0.01821699,-0.01028994
 ,-0.17453196,0.08743055,0.00830684,-0.03287565,0.02126703,0.00363481,0
 .00025852,0.00147720,-0.00012672,-0.00056574,0.00059338,-0.00025365,0.
 00276510,0.00183222,-0.00302396,0.00989301,0.00293563,0.03192863,0.437
 35111,0.01958488,0.02087828,-0.02167619,0.00451943,0.09297406,-0.12860
 704,-0.00542900,0.01553431,-0.00286162,0.00126835,0.00192610,0.0034458
 5,-0.00023644,0.00079858,-0.00025510,0.00362319,0.00077341,0.00228645,
 0.01803798,-0.00052630,0.00026872,-0.02315019,-0.04931074,0.44574557,-
 0.00014218,0.00302180,0.00160553,-0.02872104,0.01387486,0.01228096,-0.
 16598512,-0.00511056,0.08237285,-0.00719421,-0.00772487,0.01352126,0.0
 0127110,0.00089992,0.00185020,0.00044784,-0.00001023,-0.00024044,-0.00
 011153,-0.00050201,0.00004302,-0.00106345,-0.00112189,-0.00004780,0.20
 126665,0.00246211,-0.00010467,0.00258147,0.02397737,-0.00257687,-0.009
 06271,-0.00502359,-0.03622019,-0.00073322,-0.01803947,-0.00436260,0.01
 842297,0.00110569,-0.00062347,0.00340854,0.00003531,0.00013091,-0.0000
 7450,0.00023256,-0.00041791,-0.00027837,-0.00105615,-0.00078733,-0.000
 46225,-0.00345520,0.04599050,0.00200054,0.00222653,0.00291549,0.005141
 98,-0.00265765,0.00472933,0.08231117,-0.00067836,-0.09347571,0.0208104
 9,0.01188303,-0.01606959,0.00170480,0.00353898,0.00161039,-0.00027284,
 -0.00004571,0.00026218,-0.00047616,0.00018752,-0.00043368,-0.00009436,
 -0.00042049,-0.00203214,-0.11022411,-0.01364984,0.10310682,-0.00004213
 ,-0.00005615,0.00028533,0.00114292,0.00103040,0.00191030,0.00361319,0.
 00475211,-0.00218101,-0.12079310,0.08984445,-0.01334428,-0.03037902,0.
 02039122,0.00838316,-0.00089261,0.00094799,0.00333396,0.00021553,-0.00
 064625,-0.00027002,-0.00003913,-0.00061047,0.00017167,0.00045196,-0.00
 081089,-0.00045663,0.14788278,0.00032978,0.00022651,-0.00012498,0.0002
 4854,-0.00018339,0.00371981,0.01524317,-0.02876117,0.01452401,0.089903
 74,-0.13463319,0.00866395,0.00989207,0.00023250,-0.00250041,0.00103753
 ,0.00144681,0.00215169,-0.00063675,0.00026231,-0.00043916,0.00032993,-
 0.00016335,-0.00041088,-0.00058663,-0.00056367,-0.00005779,-0.11519566
 ,0.16233467,0.00001362,0.00012036,0.00025151,0.00246111,0.00322464,0.0
 0146425,-0.00959392,0.02117444,-0.00341067,-0.01338718,0.00870068,-0.0
 3936892,0.01580103,-0.00915666,0.00202136,0.00327133,0.00220684,0.0017
 8898,-0.00027684,-0.00043258,-0.00044890,-0.00049277,0.00018551,-0.000
 26708,-0.00061504,0.00008433,-0.00084138,0.00255565,-0.02505044,0.0396
 0794,-0.00043993,0.00248476,0.00188554,0.00010282,0.00012477,0.0000655
 8,-0.00117903,0.00144216,0.00316649,-0.01087321,-0.01766836,0.02291066
 ,-0.04019392,-0.02398214,0.01598601,0.00082987,0.01917569,-0.01060865,
 -0.00011009,0.00043035,-0.00051870,-0.00013135,-0.00014626,-0.00040300
 ,-0.00009800,-0.00040393,0.00013759,-0.00071131,-0.00066705,0.00010119
 ,0.05301710,0.00326642,-0.00004001,0.00170487,-0.00026110,0.00021340,0
 .00025891,0.00135277,0.00147270,0.00193335,-0.00716923,-0.00153495,0.0
 0956532,-0.02404146,-0.14193725,0.08606859,0.00868482,-0.02850908,0.01
 850343,-0.00051018,-0.00015691,0.00011727,-0.00015616,0.00029376,-0.00
 076592,-0.00019559,-0.00004521,-0.00007819,-0.00046216,0.00035336,-0.0
 0087175,0.01884858,0.17093166,0.00133332,0.00220054,0.00290303,0.00033
 799,0.00001420,0.00012062,0.00322956,0.00187638,0.00204884,0.01549189,
 0.01622302,-0.01571676,0.01602756,0.08603013,-0.11266418,-0.00319511,0
 .01185222,-0.00087979,0.00014588,-0.00047874,-0.00020277,-0.00039662,-
 0.00077160,-0.00013304,-0.00000964,0.00005408,-0.00036303,-0.00004355,
 -0.00074189,-0.00074309,-0.03201723,-0.11611273,0.12587628,-0.00574571
 ,-0.00848632,0.01351472,0.00101774,0.00082316,0.00242336,0.00048327,-0
 .00001481,-0.00025976,0.00001254,0.00288378,0.00124667,-0.02882110,0.0
 1251847,0.01292893,-0.16479614,-0.00670372,0.08274468,-0.00182830,0.00
 002434,-0.00037316,-0.00022652,0.00039512,-0.00051804,-0.00036103,-0.0
 0021208,-0.00017393,-0.00037690,-0.00000986,0.00003591,-0.00027325,0.0
 0021383,-0.00072083,0.19961444,-0.01858868,-0.00465848,0.01939670,0.00
 138260,-0.00020967,0.00334026,-0.00006008,0.00012745,-0.00001163,0.002
 67815,-0.00050932,0.00233095,0.02283276,-0.00240301,-0.00887652,-0.006
 79042,-0.03632820,0.00046342,-0.00004159,-0.00071806,-0.00115458,-0.00
 033952,-0.00040749,0.00007708,-0.00021452,-0.00022271,-0.00032252,0.00
 019852,-0.00001993,-0.00034584,0.00043803,-0.00049795,-0.00075385,-0.0
 0112036,0.04614036,0.02065409,0.01299153,-0.01616418,0.00202812,0.0036
 9499,0.00186059,-0.00022768,-0.00004076,0.00023010,0.00139142,0.002200
 62,0.00275496,0.00564029,-0.00233679,0.00359725,0.08280583,0.00040777,
 -0.09455650,-0.00032669,-0.00119607,-0.00133701,0.00000117,-0.00038869
 ,-0.00032905,-0.00017230,-0.00032411,-0.00053322,-0.00011141,-0.000213
 75,-0.00010939,-0.00087922,-0.00061178,-0.00018198,-0.11082626,-0.0152
 3604,0.10460930,-0.03057581,0.00987638,-0.01040028,-0.00058345,0.00037
 060,0.00000535,0.00009844,0.00030433,0.00022146,0.00009668,-0.00021693
 ,0.00009113,0.00011016,0.00011547,0.00041626,-0.00032888,-0.00012101,-
 0.00013874,-0.17749968,-0.05118556,-0.04855770,0.00105541,0.00038919,-
 0.00060241,-0.00008618,-0.00001421,0.00003170,-0.00013211,0.00008597,-
 0.00005745,0.00006672,0.00006949,-0.00009200,0.00037423,-0.00002377,-0
 .00029118,0.22503530,0.01889973,0.00413833,0.00623783,0.00094937,-0.00
 109301,0.00007036,-0.00007629,-0.00044512,-0.00049668,0.00008735,0.000
 05868,-0.00011934,-0.00050941,-0.00012123,-0.00026475,0.00055801,-0.00
 094116,0.00029273,-0.05321430,-0.05357797,-0.01548284,0.00019313,-0.00
 056044,0.00066203,0.00009005,0.00000088,0.00002625,0.00005648,0.000032
 14,0.00007417,0.00003066,0.00001982,0.00006192,0.00032772,-0.00003890,
 0.00044113,0.06129907,0.06236530,-0.00932826,0.00158334,0.00147356,0.0
 0010073,0.00014653,-0.00003209,0.00009454,0.00011054,0.00000298,-0.000
 07758,0.00002215,-0.00000274,0.00014741,-0.00015210,0.00005185,0.00007
 023,0.00050667,-0.00035012,-0.04868757,-0.01552579,-0.04899159,0.00047
 123,-0.00079711,-0.00193347,-0.00001509,0.00001416,0.00004945,0.000015
 78,-0.00000802,0.00000179,0.00002719,0.00000713,-0.00000123,-0.0002745
 5,0.00039963,-0.00006932,0.05703817,0.01484787,0.05390183,-0.00014532,
 0.00002211,0.00024567,0.00379894,-0.00261602,0.00450492,-0.00034790,0.
 00053792,0.00006113,-0.00013426,-0.00018784,0.00005727,0.00000971,0.00
 010773,-0.00011432,-0.00007810,-0.00000367,0.00002165,-0.00139715,-0.0
 0090536,-0.00064261,-0.03442932,0.00646005,0.01609865,0.00017751,0.000
 39634,-0.00035631,0.00003202,-0.00002080,0.00000968,-0.00000423,-0.000
 04509,0.00006617,0.00002170,0.00001873,0.00002809,-0.00007517,0.000026
 96,0.00025077,0.04030641,-0.00027524,-0.00114335,0.00089102,-0.0019096
 0,0.00304793,0.02108588,0.00007730,-0.00093549,0.00061411,-0.00004987,
 -0.00011603,-0.00058302,-0.00014812,0.00006161,0.00002685,-0.00041260,
 -0.00046540,-0.00028598,0.00054229,-0.00058798,0.00038064,0.00730283,-
 0.04997525,-0.05018093,0.00029496,-0.00002641,0.00045645,0.00004842,0.
 00001755,0.00005279,0.00004425,0.00002747,0.00008876,-0.00001301,-0.00
 000145,0.00009603,0.00001013,0.00011050,0.00005056,-0.01092953,0.05797
 060,0.00016367,0.00038661,-0.00041992,0.00390331,0.01091928,-0.0318109
 6,-0.00013705,0.00006669,-0.00033642,0.00030295,0.00004708,0.00029107,
 0.00005641,-0.00018816,0.00008132,0.00011062,0.00030929,0.00020019,-0.
 00165531,-0.00006565,0.00054557,0.01616980,-0.04833182,-0.19566454,-0.
 00036095,0.00011703,0.00011482,-0.00010808,0.00006147,0.00003572,-0.00
 000419,0.00007998,-0.00012133,0.00007848,-0.00000221,-0.00005610,0.000
 14981,0.00003642,0.00010126,-0.02637870,0.05577224,0.24302510,0.015299
 90,-0.00338075,-0.00365215,-0.00321609,0.03085465,-0.01610181,-0.00107
 196,-0.00293291,0.00244074,-0.00040973,-0.00010673,0.00009247,-0.00010
 055,-0.00076946,0.00036281,-0.00426192,0.00319482,0.00013341,-0.086848
 02,-0.01549772,0.01571894,-0.11348513,0.01806922,0.00888498,-0.0003150
 5,0.00079278,0.00010939,-0.00008011,0.00001578,0.00021574,0.00004444,0
 .00081500,-0.00042724,0.00097036,-0.00054703,0.00024119,-0.01582719,-0
 .02153809,0.01697609,-0.00646493,0.01276419,0.01633966,0.50156221,0.00
 468801,-0.03386188,0.02503516,0.02278531,-0.03218381,0.01237332,-0.001
 31268,-0.00120022,0.00133465,-0.00033395,0.00087634,-0.00068263,-0.000
 54270,0.00084871,-0.00053091,0.00157321,-0.00091097,-0.00069991,-0.019
 56656,-0.08605808,0.01716001,0.02213846,-0.08364488,-0.01098657,0.0012
 6917,0.00041463,-0.00057404,0.00099101,-0.00091690,0.00021615,-0.00016
 027,-0.00092828,0.00095368,-0.00102343,0.00029819,0.00096170,-0.018879
 87,-0.00632996,0.01081802,0.01676083,-0.00412175,-0.01240425,0.0520552
 0,0.62772554,-0.00935539,0.03015112,-0.00960131,-0.01040028,0.00725880
 ,0.00723528,0.00129567,0.00236260,-0.00298233,0.00025005,-0.00082542,0
 .00003876,0.00020408,-0.00038547,-0.00024171,0.00127870,-0.00172703,-0
 .00008137,0.01859283,0.01458019,-0.10142336,0.00601174,-0.00840799,-0.
 07719880,-0.00022716,-0.00027193,0.00107718,-0.00047326,0.00083445,-0.
 00001162,0.00026126,0.00033571,-0.00012460,0.00057799,0.00065987,-0.00
 009163,0.01076034,0.00510734,0.00890215,0.02287345,-0.01683167,-0.0026
 6851,0.15374193,0.09018785,0.64084739,-0.00638388,0.01823810,0.0120728
 8,-0.00078319,0.00070768,0.00009876,-0.00036947,-0.00013339,-0.0002698
 3,0.00004358,-0.00019317,0.00007446,-0.00020786,-0.00023521,-0.0003212
 8,-0.00031571,0.00024092,0.00030572,-0.03673213,0.01515560,0.02480782,
 -0.00078442,-0.00007933,-0.00092672,-0.00002081,0.00005017,0.00006951,
 -0.00003802,0.00012387,0.00004947,0.00004548,0.00007006,-0.00001910,0.
 00048446,0.00000539,0.00004856,-0.00013597,-0.00953713,-0.01421904,0.0
 0002406,-0.00000085,0.00009324,0.00260580,-0.00073916,0.01822876,0.044
 86051,0.01480427,-0.02115429,-0.01769610,0.00071755,-0.00072896,0.0001
 6051,0.00034587,0.00011968,0.00044411,0.00004222,0.00010097,-0.0001148
 3,0.00000733,0.00045820,0.00028665,0.00026359,-0.00088178,0.00030039,0
 .01511715,-0.07833650,-0.07337850,-0.00186124,-0.00108855,0.00029233,0
 .00008244,-0.00001702,-0.00005839,0.00001312,-0.00009092,-0.00004019,-
 0.00005699,-0.00005087,0.00004234,-0.00001638,-0.00052684,0.00008344,-
 0.00455334,-0.00293074,-0.01102366,0.00004416,0.00005320,-0.00006301,-
 0.00168776,0.01311499,0.01233523,-0.02407061,0.09587633,0.00705104,-0.
 00949611,0.00257388,-0.00041382,0.00045701,-0.00019650,-0.00021266,-0.
 00010086,-0.00009246,-0.00013759,0.00008614,0.00000717,0.00021676,-0.0
 0006781,-0.00020944,-0.00039870,0.00053043,-0.00042199,0.02639896,-0.0
 7464677,-0.16499974,-0.00060184,0.00049707,0.00043324,0.00002003,0.000
 04000,0.00000194,0.00007548,-0.00004715,0.00003061,-0.00002097,-0.0000
 0828,0.00009069,-0.00020100,0.00033374,0.00030821,-0.00673816,-0.01054
 617,-0.01024876,0.00006537,-0.00004586,-0.00009751,0.01456173,0.004340
 14,-0.02897683,-0.03854584,0.09038008,0.20056624,-0.00017618,0.0001677
 0,-0.00017640,-0.00415292,-0.01540181,0.00655672,-0.00039737,0.0004258
 8,-0.00042647,-0.00018316,-0.00000407,0.00022757,0.00003533,0.00015645
 ,-0.00013617,0.00002942,-0.00004095,-0.00005911,0.00072902,0.00056416,
 0.00016904,-0.15672727,-0.07716116,-0.02997737,0.00037265,0.00035092,-
 0.00023166,0.00009669,-0.00002891,0.00000258,-0.00001991,-0.00009163,0
 .00007825,-0.00003113,0.00001583,0.00001232,-0.00013050,-0.00004978,-0
 .00000600,-0.00039197,-0.00558067,-0.00689839,-0.03657021,0.00213886,-
 0.00220417,-0.00009237,0.00000135,0.00014121,0.19571131,-0.00012295,-0
 .00077334,0.00071578,-0.02169892,-0.02338056,0.00613782,0.00018476,-0.
 00087831,0.00032724,0.00024011,0.00047288,0.00015201,-0.00012728,0.000
 10669,-0.00001044,0.00026854,0.00011979,0.00050990,0.00109450,-0.00097
 599,-0.00158193,-0.07593697,-0.08402910,-0.01783896,0.00012282,-0.0005
 1137,-0.00001914,0.00006792,-0.00005010,-0.00003793,-0.00004047,-0.000
 09947,-0.00000371,-0.00008870,-0.00002353,0.00005193,-0.00008405,0.000
 04773,0.00001507,-0.00778531,-0.00290738,-0.00867523,0.00974117,0.0136
 0803,0.00336954,0.00006578,0.00016558,0.00004699,0.09602564,0.10333953
 ,0.00032139,0.00084691,-0.00075974,0.01110899,0.01276139,0.00257014,0.
 00026772,0.00042900,-0.00034397,-0.00028755,-0.00023514,-0.00024939,0.
 00007415,-0.00013720,0.00001039,-0.00007762,-0.00014792,-0.00049173,-0
 .00021532,0.00011887,-0.00119259,-0.03151003,-0.01837723,-0.03931244,0
 .00000581,0.00011114,0.00040450,0.00000297,0.00005857,0.00003863,0.000
 04935,0.00009381,0.00002096,0.00005833,0.00006353,0.00001878,0.0000224
 3,-0.00001831,0.00006271,-0.01424486,-0.01338654,-0.01001636,0.0017833
 7,0.00123038,0.00970644,0.00020816,0.00009129,0.00006353,0.03252435,0.
 01693443,0.04225140,-0.00280251,0.00088722,0.00067839,-0.00117450,-0.0
 0077965,0.00112232,0.00023176,0.00058255,-0.00040735,0.00016704,-0.000
 09201,0.00003760,0.00008254,0.00007711,-0.00002549,0.00079323,-0.00063
 941,0.00009032,0.00557970,-0.01914131,0.00276007,0.00734869,0.02103855
 ,0.00790624,-0.00009839,-0.00020106,0.00001329,-0.00008099,0.00005497,
 -0.00005412,-0.00000066,-0.00009849,0.00001374,-0.00013805,0.00011472,
 -0.00008719,0.00033801,0.00125801,0.00009616,-0.00180492,-0.00001861,-
 0.00040705,-0.08102897,-0.07817326,-0.03913246,-0.00077486,0.00067707,
 -0.00156954,0.00091417,-0.00291960,-0.00102802,0.06845473,-0.00253773,
 0.00150982,0.00045657,0.00126726,0.00157589,-0.00199105,0.00032827,-0.
 00032090,0.00014841,0.00020451,-0.00050773,0.00027551,0.00019798,-0.00
 050254,0.00027704,0.00006141,-0.00036877,0.00035124,-0.01536068,-0.021
 59824,0.00660279,0.01330013,-0.01941714,-0.01201211,-0.00049024,0.0000
 1789,0.00023155,-0.00038779,0.00034742,-0.00004345,0.00009921,0.000357
 93,-0.00035950,0.00039977,0.00005615,-0.00035665,0.00186321,-0.0003465
 6,0.00101516,0.00015289,-0.00043908,0.00207636,-0.08190563,-0.34632928
 ,-0.13870581,0.00084335,-0.00202046,-0.00235999,-0.00234384,-0.0022372
 8,-0.00021649,0.09345892,0.38822740,0.00033277,-0.00029972,-0.00039662
 ,0.00140047,0.00086165,-0.00208844,-0.00010547,-0.00049517,0.00064283,
 0.00001715,0.00001482,0.00010337,0.00001561,-0.00009807,0.00018301,-0.
 00018947,0.00031599,0.00012931,0.00538252,0.01348388,0.01296175,0.0050
 9240,-0.01286416,0.00901124,-0.00009922,0.00004268,-0.00015533,-0.0000
 3477,-0.00006627,-0.00002321,-0.00001724,0.00003668,-0.00011431,0.0000
 2512,-0.00016153,-0.00015390,0.00061132,0.00058130,-0.00189166,-0.0008
 8382,0.00132750,0.00034338,-0.03931094,-0.13302057,-0.12413056,-0.0015
 7719,-0.00306105,-0.00041760,-0.00098478,-0.00064624,-0.00189035,0.047
 49204,0.15917871,0.12027790,-0.00066396,-0.00002400,0.00040579,-0.0024
 3033,-0.00201277,0.00263205,0.00013227,0.00090938,-0.00060290,0.000028
 52,0.00022071,-0.00011490,-0.00001826,0.00038969,-0.00020676,0.0006446
 6,-0.00030690,-0.00005842,0.01538988,-0.00036448,0.00327450,-0.0200190
 0,0.01360528,-0.01880648,0.00020932,-0.00018766,-0.00004690,0.00013012
 ,-0.00012025,-0.00004112,-0.00007176,-0.00029032,0.00019637,-0.0003810
 4,0.00004026,0.00006880,-0.00179998,0.00114910,-0.00267968,0.00090258,
 -0.00174482,-0.00141817,-0.17080330,-0.00366635,-0.17228773,-0.0014246
 6,0.00012908,0.00031032,0.00098461,0.00099249,0.00093688,0.00399398,-0
 .00915069,-0.01716534,0.17519675,-0.00044968,0.00016711,-0.00030963,-0
 .00020993,0.00011327,-0.00043290,0.00024329,0.00007302,-0.00002896,0.0
 0007769,-0.00012820,0.00015000,0.00011556,-0.00012173,0.00012126,-0.00
 008526,0.00002344,0.00021479,0.00247190,0.00701744,0.01805577,0.014726
 80,0.00788437,0.00857403,-0.00024495,-0.00007588,0.00001054,-0.0001728
 2,0.00012950,-0.00006106,0.00000724,0.00