 Default is to use a total of   8 processors:
                                8 via shared-memory
                                1 via Linda
 Entering Link 1 = C:\G16W\l1.exe PID=     17996.
  
 Copyright (c) 1988-2019, Gaussian, Inc.  All Rights Reserved.
  
 This is part of the Gaussian(R) 16 program.  It is based on
 the Gaussian(R) 09 system (copyright 2009, Gaussian, Inc.),
 the Gaussian(R) 03 system (copyright 2003, Gaussian, Inc.),
 the Gaussian(R) 98 system (copyright 1998, Gaussian, Inc.),
 the Gaussian(R) 94 system (copyright 1995, Gaussian, Inc.),
 the Gaussian 92(TM) system (copyright 1992, Gaussian, Inc.),
 the Gaussian 90(TM) system (copyright 1990, Gaussian, Inc.),
 the Gaussian 88(TM) system (copyright 1988, Gaussian, Inc.),
 the Gaussian 86(TM) system (copyright 1986, Carnegie Mellon
 University), and the Gaussian 82(TM) system (copyright 1983,
 Carnegie Mellon University). Gaussian is a federally registered
 trademark of Gaussian, Inc.
  
 This software contains proprietary and confidential information,
 including trade secrets, belonging to Gaussian, Inc.
  
 This software is provided under written license and may be
 used, copied, transmitted, or stored only in accord with that
 written license.
  
 The following legend is applicable only to US Government
 contracts under FAR:
  
                    RESTRICTED RIGHTS LEGEND
  
 Use, reproduction and disclosure by the US Government is
 subject to restrictions as set forth in subparagraphs (a)
 and (c) of the Commercial Computer Software - Restricted
 Rights clause in FAR 52.227-19.
  
 Gaussian, Inc.
 340 Quinnipiac St., Bldg. 40, Wallingford CT 06492
  
  
 ---------------------------------------------------------------
 Warning -- This program may not be used in any manner that
 competes with the business of Gaussian, Inc. or will provide
 assistance to any competitor of Gaussian, Inc.  The licensee
 of this program is prohibited from giving any competitor of
 Gaussian, Inc. access to this program.  By using this program,
 the user acknowledges that Gaussian, Inc. is engaged in the
 business of creating and licensing software in the field of
 computational chemistry and represents and warrants to the
 licensee that it is not a competitor of Gaussian, Inc. and that
 it will not use this program in any manner prohibited above.
 ---------------------------------------------------------------
  

 Cite this work as:
 Gaussian 16, Revision C.01,
 M. J. Frisch, G. W. Trucks, H. B. Schlegel, G. E. Scuseria, 
 M. A. Robb, J. R. Cheeseman, G. Scalmani, V. Barone, 
 G. A. Petersson, H. Nakatsuji, X. Li, M. Caricato, A. V. Marenich, 
 J. Bloino, B. G. Janesko, R. Gomperts, B. Mennucci, H. P. Hratchian, 
 J. V. Ortiz, A. F. Izmaylov, J. L. Sonnenberg, D. Williams-Young, 
 F. Ding, F. Lipparini, F. Egidi, J. Goings, B. Peng, A. Petrone, 
 T. Henderson, D. Ranasinghe, V. G. Zakrzewski, J. Gao, N. Rega, 
 G. Zheng, W. Liang, M. Hada, M. Ehara, K. Toyota, R. Fukuda, 
 J. Hasegawa, M. Ishida, T. Nakajima, Y. Honda, O. Kitao, H. Nakai, 
 T. Vreven, K. Throssell, J. A. Montgomery, Jr., J. E. Peralta, 
 F. Ogliaro, M. J. Bearpark, J. J. Heyd, E. N. Brothers, K. N. Kudin, 
 V. N. Staroverov, T. A. Keith, R. Kobayashi, J. Normand, 
 K. Raghavachari, A. P. Rendell, J. C. Burant, S. S. Iyengar, 
 J. Tomasi, M. Cossi, J. M. Millam, M. Klene, C. Adamo, R. Cammi, 
 J. W. Ochterski, R. L. Martin, K. Morokuma, O. Farkas, 
 J. B. Foresman, and D. J. Fox, Gaussian, Inc., Wallingford CT, 2019.
 
 ******************************************
 Gaussian 16:  EM64W-G16RevC.01 30-May-2019
                15-Nov-2025 
 ******************************************
 %chk=C:\Users\al6323\OneDrive - Imperial College London\Desktop\TSR20251115\TS_B
 erny_IRC.chk
 Default route: MaxDisk=10GB
 ----------------------------------------------------------------------
 # irc=(calcall,maxpoints=100) rpm6 nosymm geom=connectivity scf=(tight
 ,xqc)
 ----------------------------------------------------------------------
 1/10=4,18=10,26=1,38=1,42=100,44=3,57=2,71=1,172=1/1,23;
 2/12=2,15=1,17=6,18=5,29=1,40=1/2;
 3/5=2,25=1,41=3900000,71=2,116=1,140=1/1,2,3;
 4/35=1/1;
 5/5=2,8=3,13=1,32=2,35=1,38=5/2,8;
 8/6=4,10=90,11=11/1;
 11/6=1,8=1,9=11,15=111,16=1,31=1/1,2,10;
 10/6=1,13=1,31=1/2;
 6/7=2,8=2,9=2,10=2,18=1,28=1/1;
 7/10=1,25=1,30=1/1,2,3,16;
 1/10=4,18=10,26=1,42=100,44=3,71=1/23(2);
 2/15=1,29=1/2;
 99/5=20/99;
 2/15=1,29=1/2;
 3/5=2,25=1,41=3900000,71=2,116=1,135=20,140=1/1,2,3;
 4/5=5,16=3,35=1/1;
 5/5=2,8=3,13=1,32=2,35=1,38=5/2,8;
 8/6=4,10=90,11=11/1;
 11/6=1,8=1,9=11,15=111,16=1,31=1/1,2,10;
 10/6=1,13=1,31=1/2;
 7/10=1,25=1,30=1/1,2,3,16;
 1/10=4,18=10,26=1,42=100,44=3,71=1/23(-8);
 2/15=1,29=1/2;
 6/7=2,8=2,9=2,10=2,18=1,19=2,28=1/1;
 99/5=20/99;
 -------------------
 Title Card Required
 -------------------
 Symbolic Z-matrix:
 Charge =  0 Multiplicity = 1
 C                     0.05545  -1.04642   0.43344 
 C                    -1.19445  -1.12303   1.18379 
 C                    -2.35298  -0.41346   0.6565 
 C                    -2.27417   0.32191  -0.47876 
 C                    -1.03442   0.3979   -1.22302 
 C                     0.06759  -0.26508  -0.79664 
 C                     1.10738  -1.86302   0.77297 
 C                    -1.31254  -2.01135   2.22572 
 H                    -3.28103  -0.4863    1.22333 
 H                    -3.13309   0.86935  -0.8656 
 H                    -1.02374   0.99865  -2.1319 
 H                     1.00561  -0.22354  -1.35006 
 H                     1.36134  -2.13803   1.79229 
 H                    -0.50905  -2.25266   2.91515 
 S                    -0.32888  -3.73842   0.93849 
 H                     1.93925  -2.01797   0.09544 
 H                    -2.28269  -2.27675   2.62999 
 O                    -1.03401  -4.024    -0.26518 
 O                     0.27573  -4.65038   1.85251 
 
 IRC-IRC-IRC-IRC-IRC-IRC-IRC-IRC-IRC-IRC-IRC-IRC-IRC-IRC-IRC-IRC-IRC-IRC
 ------------------------------------------------------------------------
 INPUT DATA FOR L123
 ------------------------------------------------------------------------
 GENERAL PARAMETERS:
 Follow reaction path in both directions.
 Maximum points per path      = 100
 Step size                    =   0.100 bohr
 Integration scheme           = HPC                                 
    Redo corrector integration= Yes                                 
    DWI Weight Power          =  2
    DWI will use Hessian update vectors when possible.
    Max correction cycles     =  20
 Initial Hessian              = CalcFC
 Hessian evaluation           = Analytic at all predictor steps
                              = Update at all corrector steps
 Hessian updating method      = Bofill                              
 ------------------------------------------------------------------------
 IRC-IRC-IRC-IRC-IRC-IRC-IRC-IRC-IRC-IRC-IRC-IRC-IRC-IRC-IRC-IRC-IRC-IRC
                          Input orientation:                          
 ---------------------------------------------------------------------
 Center     Atomic      Atomic             Coordinates (Angstroms)
 Number     Number       Type             X           Y           Z
 ---------------------------------------------------------------------
      1          6           0        0.055448   -1.046420    0.433436
      2          6           0       -1.194450   -1.123034    1.183786
      3          6           0       -2.352985   -0.413456    0.656495
      4          6           0       -2.274170    0.321910   -0.478763
      5          6           0       -1.034424    0.397904   -1.223015
      6          6           0        0.067594   -0.265080   -0.796644
      7          6           0        1.107376   -1.863020    0.772967
      8          6           0       -1.312542   -2.011349    2.225716
      9          1           0       -3.281026   -0.486297    1.223325
     10          1           0       -3.133094    0.869347   -0.865604
     11          1           0       -1.023743    0.998646   -2.131904
     12          1           0        1.005608   -0.223536   -1.350058
     13          1           0        1.361344   -2.138030    1.792293
     14          1           0       -0.509045   -2.252663    2.915148
     15         16           0       -0.328883   -3.738420    0.938487
     16          1           0        1.939248   -2.017965    0.095437
     17          1           0       -2.282690   -2.276754    2.629992
     18          8           0       -1.034009   -4.024002   -0.265184
     19          8           0        0.275727   -4.650381    1.852508
 ---------------------------------------------------------------------
                    Distance matrix (angstroms):
                    1          2          3          4          5
     1  C    0.000000
     2  C    1.459842   0.000000
     3  C    2.500189   1.457305   0.000000
     4  C    2.851588   2.453106   1.354912   0.000000
     5  C    2.453106   2.851588   2.435050   1.447983   0.000000
     6  C    1.457305   2.500189   2.827160   2.435050   1.354912
     7  C    1.374289   2.452500   3.753518   4.216112   3.699058
     8  C    2.452499   1.374288   2.469460   3.699058   4.216112
     9  H    3.474151   2.181925   1.089891   2.136366   3.437094
    10  H    3.940111   3.453682   2.137976   1.089534   2.180462
    11  H    3.453683   3.940110   3.396482   2.180462   1.089534
    12  H    2.181925   3.474150   3.916947   3.437093   2.136366
    13  H    2.177950   2.816484   4.249757   4.942263   4.611156
    14  H    2.816481   2.177948   3.447362   4.611152   4.942259
    15  S    2.765800   2.765795   3.902805   4.720065   4.720070
    16  H    2.146357   3.435909   4.616546   4.853619   4.051848
    17  H    3.435908   2.146357   2.715053   4.051850   4.853620
    18  O    3.246687   3.246671   3.952876   4.524441   4.524455
    19  O    3.879539   3.879535   5.127583   6.054790   6.054794
                    6          7          8          9         10
     6  C    0.000000
     7  C    2.469461   0.000000
     8  C    3.753517   2.826391   0.000000
     9  H    3.916947   4.621284   2.684306   0.000000
    10  H    3.396482   5.303992   4.600987   2.494650   0.000000
    11  H    2.137976   4.600987   5.303992   4.307894   2.463655
    12  H    1.089891   2.684306   4.621283   5.006653   4.307894
    13  H    3.447365   1.085890   2.711747   4.960197   6.025671
    14  H    4.249753   2.711749   1.085890   3.696782   5.561175
    15  S    3.902815   2.367987   2.367978   4.401430   5.687694
    16  H    2.715051   1.084005   3.887451   5.556024   5.915136
    17  H    4.616547   3.887450   1.084005   2.486187   4.779156
    18  O    3.952907   3.214519   3.214489   4.447483   5.358314
    19  O    5.127591   3.102649   3.102640   5.512347   7.033889
                   11         12         13         14         15
    11  H    0.000000
    12  H    2.494650   0.000000
    13  H    5.561178   3.696783   0.000000
    14  H    6.025667   4.960193   2.184560   0.000000
    15  S    5.687700   4.401444   2.479334   2.479339   0.000000
    16  H    4.779154   2.486185   1.796583   3.741657   2.969026
    17  H    5.915138   5.556025   3.741653   1.796583   2.969010
    18  O    5.358334   4.447531   3.678018   3.678009   1.423933
    19  O    7.033895   5.512360   2.737534   2.737540   1.425715
                   16         17         18         19
    16  H    0.000000
    17  H    4.931096   0.000000
    18  O    3.604787   3.604736   0.000000
    19  O    3.575502   3.575484   2.567564   0.000000
 Symmetry turned off by external request.
 Stoichiometry    C8H8O2S
 Framework group  C1[X(C8H8O2S)]
 Deg. of freedom    51
 Full point group                 C1      NOp   1
 Rotational constants (GHZ):           2.0053064           0.7011260           0.6546407
 Standard basis: VSTO-6G (5D, 7F)
    57 basis functions,   348 primitive gaussians,    58 cartesian basis functions
    29 alpha electrons       29 beta electrons
       nuclear repulsion energy       337.7123886542 Hartrees.
 Integral buffers will be    131072 words long.
 Regular integral format.
 Two-electron integral symmetry is turned off.
 Do NDO integrals.
 One-electron integrals computed using PRISM.
 NBasis=    57 RedAO= F EigKep=  0.00D+00  NBF=    57
 NBsUse=    57 1.00D-04 EigRej=  0.00D+00 NBFU=    57
 Nonelectrostatic core Hamiltonian diagonalized for initial guess.
 Keep J ints in memory in canonical form, NReq=1859402.
 Overlap will be assumed to be unity.
 Requested convergence on RMS density matrix=1.00D-08 within  32 cycles.
 Requested convergence on MAX density matrix=1.00D-06.
 Requested convergence on             energy=1.00D-06.
 No special actions if energy rises.
 SCF Done:  E(RPM6) =  0.400074136968E-02 A.U. after   19 cycles
            NFock= 18  Conv=0.97D-08     -V/T= 1.0000
 QCSCF skips out because SCF is already converged.
 Range of M.O.s used for correlation:     1    57
 NBasis=    57 NAE=    29 NBE=    29 NFC=     0 NFV=     0
 NROrb=     57 NOA=    29 NOB=    29 NVA=    28 NVB=    28
 Symmetrizing basis deriv contribution to polar:
 IMax=3 JMax=2 DiffMx= 0.00D+00
 G2DrvN: will do    20 centers at a time, making    1 passes.
 Calling FoFCou, ICntrl=  3107 FMM=F I1Cent=   0 AccDes= 0.00D+00.
 End of G2Drv F.D. properties file   721 does not exist.
 End of G2Drv F.D. properties file   722 does not exist.
 End of G2Drv F.D. properties file   788 does not exist.
          IDoAtm=1111111111111111111
          Differentiating once with respect to nuclear coordinates.
          Electric field/nuclear overlap derivatives assumed to be zero.
 Keep J ints in memory in canonical form, NReq=1861376.
          There are    60 degrees of freedom in the 1st order CPHF.  IDoFFX=5 NUNeed=    60.
 LinEq1:  Iter=  0 NonCon=    57 RMS=1.46D-02 Max=1.58D-01 NDo=    57
 AX will form    60 AO Fock derivatives at one time.
 LinEq1:  Iter=  1 NonCon=    57 RMS=5.46D-03 Max=1.01D-01 NDo=    60
 LinEq1:  Iter=  2 NonCon=    57 RMS=1.76D-03 Max=3.25D-02 NDo=    60
 LinEq1:  Iter=  3 NonCon=    57 RMS=3.96D-04 Max=4.95D-03 NDo=    60
 LinEq1:  Iter=  4 NonCon=    57 RMS=8.60D-05 Max=9.57D-04 NDo=    60
 LinEq1:  Iter=  5 NonCon=    57 RMS=2.64D-05 Max=2.51D-04 NDo=    60
 LinEq1:  Iter=  6 NonCon=    57 RMS=8.10D-06 Max=8.11D-05 NDo=    60
 LinEq1:  Iter=  7 NonCon=    57 RMS=2.14D-06 Max=1.96D-05 NDo=    60
 LinEq1:  Iter=  8 NonCon=    57 RMS=6.46D-07 Max=6.38D-06 NDo=    60
 LinEq1:  Iter=  9 NonCon=    47 RMS=1.68D-07 Max=1.94D-06 NDo=    60
 LinEq1:  Iter= 10 NonCon=    14 RMS=3.95D-08 Max=4.86D-07 NDo=    60
 LinEq1:  Iter= 11 NonCon=     0 RMS=9.19D-09 Max=7.78D-08 NDo=    14
 Linear equations converged to 1.000D-08 1.000D-07 after    11 iterations.
 End of Minotr F.D. properties file   721 does not exist.
 End of Minotr F.D. properties file   722 does not exist.
 End of Minotr F.D. properties file   788 does not exist.

 **********************************************************************

            Population analysis using the SCF Density.

 **********************************************************************

 Alpha  occ. eigenvalues --   -1.17910  -1.10952  -1.09179  -1.03167  -0.99733
 Alpha  occ. eigenvalues --   -0.91014  -0.85897  -0.78218  -0.73673  -0.73125
 Alpha  occ. eigenvalues --   -0.64087  -0.61989  -0.60120  -0.55496  -0.55255
 Alpha  occ. eigenvalues --   -0.54160  -0.53717  -0.53272  -0.52192  -0.51225
 Alpha  occ. eigenvalues --   -0.48191  -0.46679  -0.44362  -0.43514  -0.43166
 Alpha  occ. eigenvalues --   -0.41522  -0.39890  -0.32945  -0.32943
 Alpha virt. eigenvalues --   -0.05484  -0.01558   0.01625   0.02778   0.04675
 Alpha virt. eigenvalues --    0.08205   0.10204   0.13077   0.13407   0.14856
 Alpha virt. eigenvalues --    0.15966   0.16994   0.17580   0.18357   0.19662
 Alpha virt. eigenvalues --    0.19752   0.20191   0.20424   0.20817   0.21388
 Alpha virt. eigenvalues --    0.21510   0.21532   0.22060   0.28953   0.29294
 Alpha virt. eigenvalues --    0.30123   0.30211   0.33742
          Condensed to atoms (all electrons):
               1          2          3          4          5          6
     1  C    3.948800   0.000000   0.000000   0.000000   0.000000   0.000000
     2  C    0.000000   3.948794   0.000000   0.000000   0.000000   0.000000
     3  C    0.000000   0.000000   4.172170   0.000000   0.000000   0.000000
     4  C    0.000000   0.000000   0.000000   4.125512   0.000000   0.000000
     5  C    0.000000   0.000000   0.000000   0.000000   4.125514   0.000000
     6  C    0.000000   0.000000   0.000000   0.000000   0.000000   4.172168
     7  C    0.000000   0.000000   0.000000   0.000000   0.000000   0.000000
     8  C    0.000000   0.000000   0.000000   0.000000   0.000000   0.000000
     9  H    0.000000   0.000000   0.000000   0.000000   0.000000   0.000000
    10  H    0.000000   0.000000   0.000000   0.000000   0.000000   0.000000
    11  H    0.000000   0.000000   0.000000   0.000000   0.000000   0.000000
    12  H    0.000000   0.000000   0.000000   0.000000   0.000000   0.000000
    13  H    0.000000   0.000000   0.000000   0.000000   0.000000   0.000000
    14  H    0.000000   0.000000   0.000000   0.000000   0.000000   0.000000
    15  S    0.000000   0.000000   0.000000   0.000000   0.000000   0.000000
    16  H    0.000000   0.000000   0.000000   0.000000   0.000000   0.000000
    17  H    0.000000   0.000000   0.000000   0.000000   0.000000   0.000000
    18  O    0.000000   0.000000   0.000000   0.000000   0.000000   0.000000
    19  O    0.000000   0.000000   0.000000   0.000000   0.000000   0.000000
               7          8          9         10         11         12
     1  C    0.000000   0.000000   0.000000   0.000000   0.000000   0.000000
     2  C    0.000000   0.000000   0.000000   0.000000   0.000000   0.000000
     3  C    0.000000   0.000000   0.000000   0.000000   0.000000   0.000000
     4  C    0.000000   0.000000   0.000000   0.000000   0.000000   0.000000
     5  C    0.000000   0.000000   0.000000   0.000000   0.000000   0.000000
     6  C    0.000000   0.000000   0.000000   0.000000   0.000000   0.000000
     7  C    4.412636   0.000000   0.000000   0.000000   0.000000   0.000000
     8  C    0.000000   4.412643   0.000000   0.000000   0.000000   0.000000
     9  H    0.000000   0.000000   0.844514   0.000000   0.000000   0.000000
    10  H    0.000000   0.000000   0.000000   0.849773   0.000000   0.000000
    11  H    0.000000   0.000000   0.000000   0.000000   0.849773   0.000000
    12  H    0.000000   0.000000   0.000000   0.000000   0.000000   0.844515
    13  H    0.000000   0.000000   0.000000   0.000000   0.000000   0.000000
    14  H    0.000000   0.000000   0.000000   0.000000   0.000000   0.000000
    15  S    0.000000   0.000000   0.000000   0.000000   0.000000   0.000000
    16  H    0.000000   0.000000   0.000000   0.000000   0.000000   0.000000
    17  H    0.000000   0.000000   0.000000   0.000000   0.000000   0.000000
    18  O    0.000000   0.000000   0.000000   0.000000   0.000000   0.000000
    19  O    0.000000   0.000000   0.000000   0.000000   0.000000   0.000000
              13         14         15         16         17         18
     1  C    0.000000   0.000000   0.000000   0.000000   0.000000   0.000000
     2  C    0.000000   0.000000   0.000000   0.000000   0.000000   0.000000
     3  C    0.000000   0.000000   0.000000   0.000000   0.000000   0.000000
     4  C    0.000000   0.000000   0.000000   0.000000   0.000000   0.000000
     5  C    0.000000   0.000000   0.000000   0.000000   0.000000   0.000000
     6  C    0.000000   0.000000   0.000000   0.000000   0.000000   0.000000
     7  C    0.000000   0.000000   0.000000   0.000000   0.000000   0.000000
     8  C    0.000000   0.000000   0.000000   0.000000   0.000000   0.000000
     9  H    0.000000   0.000000   0.000000   0.000000   0.000000   0.000000
    10  H    0.000000   0.000000   0.000000   0.000000   0.000000   0.000000
    11  H    0.000000   0.000000   0.000000   0.000000   0.000000   0.000000
    12  H    0.000000   0.000000   0.000000   0.000000   0.000000   0.000000
    13  H    0.824297   0.000000   0.000000   0.000000   0.000000   0.000000
    14  H    0.000000   0.824297   0.000000   0.000000   0.000000   0.000000
    15  S    0.000000   0.000000   4.659563   0.000000   0.000000   0.000000
    16  H    0.000000   0.000000   0.000000   0.834115   0.000000   0.000000
    17  H    0.000000   0.000000   0.000000   0.000000   0.834114   0.000000
    18  O    0.000000   0.000000   0.000000   0.000000   0.000000   6.643917
    19  O    0.000000   0.000000   0.000000   0.000000   0.000000   0.000000
              19
     1  C    0.000000
     2  C    0.000000
     3  C    0.000000
     4  C    0.000000
     5  C    0.000000
     6  C    0.000000
     7  C    0.000000
     8  C    0.000000
     9  H    0.000000
    10  H    0.000000
    11  H    0.000000
    12  H    0.000000
    13  H    0.000000
    14  H    0.000000
    15  S    0.000000
    16  H    0.000000
    17  H    0.000000
    18  O    0.000000
    19  O    6.672884
 Mulliken charges:
               1
     1  C    0.051200
     2  C    0.051206
     3  C   -0.172170
     4  C   -0.125512
     5  C   -0.125514
     6  C   -0.172168
     7  C   -0.412636
     8  C   -0.412643
     9  H    0.155486
    10  H    0.150227
    11  H    0.150227
    12  H    0.155485
    13  H    0.175703
    14  H    0.175703
    15  S    1.340437
    16  H    0.165885
    17  H    0.165886
    18  O   -0.643917
    19  O   -0.672884
 Sum of Mulliken charges =   0.00000
 Mulliken charges with hydrogens summed into heavy atoms:
               1
     1  C    0.051200
     2  C    0.051206
     3  C   -0.016684
     4  C    0.024715
     5  C    0.024713
     6  C   -0.016682
     7  C   -0.071049
     8  C   -0.071054
    15  S    1.340437
    18  O   -0.643917
    19  O   -0.672884
 APT charges:
               1
     1  C    0.051200
     2  C    0.051206
     3  C   -0.172170
     4  C   -0.125512
     5  C   -0.125514
     6  C   -0.172168
     7  C   -0.412636
     8  C   -0.412643
     9  H    0.155486
    10  H    0.150227
    11  H    0.150227
    12  H    0.155485
    13  H    0.175703
    14  H    0.175703
    15  S    1.340437
    16  H    0.165885
    17  H    0.165886
    18  O   -0.643917
    19  O   -0.672884
 Sum of APT charges =   0.00000
 APT charges with hydrogens summed into heavy atoms:
               1
     1  C    0.051200
     2  C    0.051206
     3  C   -0.016684
     4  C    0.024715
     5  C    0.024713
     6  C   -0.016682
     7  C   -0.071049
     8  C   -0.071054
    15  S    1.340437
    18  O   -0.643917
    19  O   -0.672884
 Charge=              0.0000 electrons
 Dipole moment (field-independent basis, Debye):
    X=              0.0397    Y=              3.8169    Z=              0.3178  Tot=              3.8304
 N-N= 3.377123886542D+02 E-N=-5.278625782837D+02  KE=-1.100023469978D+02
  Exact polarizability:       0.000       0.000       0.000       0.000       0.000       0.000
 Approx polarizability:      89.575     -23.921      93.541       6.247     -39.153      89.569
 Calling FoFJK, ICntrl=    100127 FMM=F ISym2X=0 I1Cent= 0 IOpClX= 0 NMat=1 NMatS=1 NMatT=0.
 -------------------------------------------------------------------
 Center     Atomic                   Forces (Hartrees/Bohr)
 Number     Number              X              Y              Z
 -------------------------------------------------------------------
      1        6           0.000000313   -0.000000148    0.000000155
      2        6           0.000000088    0.000000166   -0.000000618
      3        6           0.000000072    0.000000129    0.000000226
      4        6          -0.000000030    0.000000126   -0.000000108
      5        6          -0.000000087    0.000000080   -0.000000087
      6        6           0.000000134   -0.000000098    0.000000046
      7        6          -0.000000466    0.000000249   -0.000000166
      8        6           0.000000211   -0.000000393    0.000000603
      9        1           0.000000028   -0.000000050   -0.000000031
     10        1           0.000000022   -0.000000054   -0.000000034
     11        1          -0.000000015   -0.000000017    0.000000028
     12        1          -0.000000012    0.000000010    0.000000034
     13        1          -0.000000070    0.000000155    0.000000024
     14        1          -0.000000035   -0.000000130   -0.000000137
     15       16          -0.000000389   -0.000000404    0.000000289
     16        1          -0.000000097    0.000000083    0.000000004
     17        1          -0.000000011    0.000000192   -0.000000015
     18        8           0.000000190    0.000000080   -0.000000221
     19        8           0.000000154    0.000000022    0.000000009
 -------------------------------------------------------------------
 Cartesian Forces:  Max     0.000000618 RMS     0.000000198
 IRC-IRC-IRC-IRC-IRC-IRC-IRC-IRC-IRC-IRC-IRC-IRC-IRC-IRC-IRC-IRC-IRC-IRC
          ******** Start new reaction path calculation ********
 Supplied step size of   0.1000 bohr.
    Integration on MW PES will use step size of   0.2444 sqrt(amu)*bohr.
 Point Number:   0          Path Number:   1
 Calculating another point on the path.
 IRC-IRC-IRC-IRC-IRC-IRC-IRC-IRC-IRC-IRC-IRC-IRC-IRC-IRC-IRC-IRC-IRC-IRC
                          Input orientation:                          
 ---------------------------------------------------------------------
 Center     Atomic      Atomic             Coordinates (Angstroms)
 Number     Number       Type             X           Y           Z
 ---------------------------------------------------------------------
      1          6           0        0.725066    0.963646   -0.119381
      2          6           0       -0.529626    0.886738    0.633846
      3          6           0       -1.688694    1.597899    0.101701
      4          6           0       -1.609404    2.332303   -1.031876
      5          6           0       -0.367627    2.408421   -1.777348
      6          6           0        0.733047    1.746346   -1.352136
      7          6           0        1.782711    0.165105    0.220052
      8          6           0       -0.652090    0.015864    1.681736
      9          1           0       -2.616706    1.524876    0.668819
     10          1           0       -2.467310    2.880456   -1.420048
     11          1           0       -0.358656    3.009712   -2.685931
     12          1           0        1.671317    1.787721   -1.905398
     13          1           0        2.022101   -0.139611    1.234743
     14          1           0        0.156795   -0.253931    2.354548
     15         16           0        0.335321   -1.738882    0.381021
     16          1           0        2.618641    0.015273   -0.453393
     17          1           0       -1.620992   -0.244602    2.091787
     18          8           0       -0.370274   -2.013999   -0.822362
     19          8           0        0.942826   -2.640431    1.300927
 ---------------------------------------------------------------------
                    Distance matrix (angstroms):
                    1          2          3          4          5
     1  C    0.000000
     2  C    1.465441   0.000000
     3  C    2.505473   1.460263   0.000000
     4  C    2.855805   2.455648   1.353009   0.000000
     5  C    2.455649   2.855804   2.435773   1.450356   0.000000
     6  C    1.460263   2.505472   2.828517   2.435773   1.353009
     7  C    1.368026   2.457414   3.757334   4.215508   3.694053
     8  C    2.457411   1.368025   2.464527   3.694053   4.215508
     9  H    3.479035   2.182739   1.090028   2.135172   3.438421
    10  H    3.944257   3.456590   2.137034   1.089566   2.181548
    11  H    3.456591   3.944257   3.396043   2.181548   1.089566
    12  H    2.182739   3.479034   3.918438   3.438421   2.135171
    13  H    2.175575   2.815276   4.251203   4.943253   4.612587
    14  H    2.815271   2.175572   3.451148   4.612584   4.943248
    15  S    2.775961   2.775957   3.912642   4.727872   4.727877
    16  H    2.143968   3.442837   4.622334   4.855886   4.049421
    17  H    3.442835   2.143969   2.712901   4.049424   4.855889
    18  O    3.249665   3.249648   3.954482   4.524343   4.524357
    19  O    3.879957   3.879953   5.130934   6.056726   6.056730
                    6          7          8          9         10
     6  C    0.000000
     7  C    2.464527   0.000000
     8  C    3.757333   2.843773   0.000000
     9  H    3.918438   4.626580   2.676348   0.000000
    10  H    3.396043   5.303371   4.595865   2.494650   0.000000
    11  H    2.137035   4.595865   5.303371   4.307885   2.462842
    12  H    1.090028   2.676346   4.626578   5.008276   4.307885
    13  H    3.451150   1.086166   2.715745   4.960779   6.026901
    14  H    4.251197   2.715745   1.086167   3.701101   5.563981
    15  S    3.912651   2.397085   2.397076   4.410149   5.695338
    16  H    2.712898   1.083862   3.905951   5.563014   5.916975
    17  H    4.622334   3.905950   1.083862   2.479382   4.776528
    18  O    3.954513   3.235810   3.235780   4.449013   5.358216
    19  O    5.130942   3.121655   3.121647   5.515399   7.036543
                   11         12         13         14         15
    11  H    0.000000
    12  H    2.494651   0.000000
    13  H    5.563984   3.701101   0.000000
    14  H    6.026896   4.960772   2.178624   0.000000
    15  S    5.695344   4.410162   2.476234   2.476239   0.000000
    16  H    4.776524   2.479378   1.797123   3.744021   2.997809
    17  H    5.916978   5.563014   3.744019   1.797125   2.997792
    18  O    5.358236   4.449061   3.669942   3.669932   1.421860
    19  O    7.036548   5.515411   2.724576   2.724582   1.424107
                   16         17         18         19
    16  H    0.000000
    17  H    4.951764   0.000000
    18  O    3.631487   3.631436   0.000000
    19  O    3.597049   3.597030   2.573909   0.000000
 Symmetry turned off by external request.
 Stoichiometry    C8H8O2S
 Framework group  C1[X(C8H8O2S)]
 Deg. of freedom    51
 Full point group                 C1      NOp   1
 Rotational constants (GHZ):           1.9899419           0.6992541           0.6531772
 Standard basis: VSTO-6G (5D, 7F)
    57 basis functions,   348 primitive gaussians,    58 cartesian basis functions
    29 alpha electrons       29 beta electrons
       nuclear repulsion energy       337.4184597726 Hartrees.
 Integral buffers will be    131072 words long.
 Regular integral format.
 Two-electron integral symmetry is turned off.
 Do NDO integrals.
 One-electron integrals computed using PRISM.
 NBasis=    57 RedAO= F EigKep=  0.00D+00  NBF=    57
 NBsUse=    57 1.00D-04 EigRej=  0.00D+00 NBFU=    57
 Initial guess from the checkpoint file:  "C:\Users\al6323\OneDrive - Imperial College London\Desktop\TSR20251115\TS_Berny_IRC.chk"
 B after Tr=     1.258214    3.800338   -1.046155
         Rot=    1.000000   -0.000001    0.000000    0.000001 Ang=   0.00 deg.
 Keep J ints in memory in canonical form, NReq=1859402.
 Overlap will be assumed to be unity.
 Requested convergence on RMS density matrix=1.00D-08 within  32 cycles.
 Requested convergence on MAX density matrix=1.00D-06.
 Requested convergence on             energy=1.00D-06.
 No special actions if energy rises.
 SCF Done:  E(RPM6) =  0.376819755292E-02 A.U. after   14 cycles
            NFock= 13  Conv=0.64D-08     -V/T= 1.0000
 QCSCF skips out because SCF is already converged.
 Range of M.O.s used for correlation:     1    57
 NBasis=    57 NAE=    29 NBE=    29 NFC=     0 NFV=     0
 NROrb=     57 NOA=    29 NOB=    29 NVA=    28 NVB=    28
 Symmetrizing basis deriv contribution to polar:
 IMax=3 JMax=2 DiffMx= 0.00D+00
 G2DrvN: will do    20 centers at a time, making    1 passes.
 Calling FoFCou, ICntrl=  3107 FMM=F I1Cent=   0 AccDes= 0.00D+00.
 End of G2Drv F.D. properties file   721 does not exist.
 End of G2Drv F.D. properties file   722 does not exist.
 End of G2Drv F.D. properties file   788 does not exist.
          IDoAtm=1111111111111111111
          Differentiating once with respect to nuclear coordinates.
          Electric field/nuclear overlap derivatives assumed to be zero.
 Keep J ints in memory in canonical form, NReq=1861376.
          There are    60 degrees of freedom in the 1st order CPHF.  IDoFFX=5 NUNeed=    60.
 LinEq1:  Iter=  0 NonCon=    57 RMS=1.46D-02 Max=1.66D-01 NDo=    57
 AX will form    60 AO Fock derivatives at one time.
 LinEq1:  Iter=  1 NonCon=    57 RMS=5.60D-03 Max=1.05D-01 NDo=    60
 LinEq1:  Iter=  2 NonCon=    57 RMS=1.65D-03 Max=3.04D-02 NDo=    60
 LinEq1:  Iter=  3 NonCon=    57 RMS=3.56D-04 Max=4.31D-03 NDo=    60
 LinEq1:  Iter=  4 NonCon=    57 RMS=7.32D-05 Max=9.03D-04 NDo=    60
 LinEq1:  Iter=  5 NonCon=    57 RMS=2.10D-05 Max=1.93D-04 NDo=    60
 LinEq1:  Iter=  6 NonCon=    57 RMS=7.12D-06 Max=6.56D-05 NDo=    60
 LinEq1:  Iter=  7 NonCon=    57 RMS=2.05D-06 Max=1.70D-05 NDo=    60
 LinEq1:  Iter=  8 NonCon=    57 RMS=6.39D-07 Max=6.47D-06 NDo=    60
 LinEq1:  Iter=  9 NonCon=    42 RMS=1.63D-07 Max=1.81D-06 NDo=    60
 LinEq1:  Iter= 10 NonCon=    15 RMS=3.76D-08 Max=3.97D-07 NDo=    42
 LinEq1:  Iter= 11 NonCon=     0 RMS=8.38D-09 Max=7.75D-08 NDo=    15
 Linear equations converged to 1.000D-08 1.000D-07 after    11 iterations.
 End of Minotr F.D. properties file   721 does not exist.
 End of Minotr F.D. properties file   722 does not exist.
 End of Minotr F.D. properties file   788 does not exist.
 Calling FoFJK, ICntrl=    100127 FMM=F ISym2X=0 I1Cent= 0 IOpClX= 0 NMat=1 NMatS=1 NMatT=0.
 -------------------------------------------------------------------
 Center     Atomic                   Forces (Hartrees/Bohr)
 Number     Number              X              Y              Z
 -------------------------------------------------------------------
      1        6           0.000127050    0.000219452   -0.000018601
      2        6          -0.000094837    0.000206147    0.000114085
      3        6          -0.000145432   -0.000055191    0.000015578
      4        6          -0.000043035    0.000002735   -0.000128786
      5        6          -0.000093499   -0.000000462   -0.000098322
      6        6           0.000086388   -0.000041251   -0.000123709
      7        6           0.001938307    0.002468452    0.000486508
      8        6          -0.000696854    0.002306236    0.002069829
      9        1          -0.000023913    0.000000416   -0.000019285
     10        1           0.000001958   -0.000005347   -0.000015675
     11        1          -0.000014203   -0.000006311   -0.000005945
     12        1          -0.000005823    0.000001625   -0.000030069
     13        1          -0.000032999   -0.000024583   -0.000267737
     14        1          -0.000218423   -0.000036193   -0.000156851
     15       16          -0.000769242   -0.005413956   -0.001833295
     16        1           0.000218693    0.000411989    0.000121186
     17        1          -0.000032267    0.000396675    0.000271942
     18        8          -0.000496514   -0.000232683   -0.000851260
     19        8           0.000294644   -0.000197751    0.000470406
 -------------------------------------------------------------------
 Cartesian Forces:  Max     0.005413956 RMS     0.000988003
 IRC-IRC-IRC-IRC-IRC-IRC-IRC-IRC-IRC-IRC-IRC-IRC-IRC-IRC-IRC-IRC-IRC-IRC
 Pt  1 Step number   1 out of a maximum of  20
 Modified Bulirsch-Stoer Extrapolation Cycles:
    EPS =    0.000010000000000
      PEZero:  N= 2 I= 1 D=  6.36D-04 Err=  9.79D-04
      PEZero:  N= 3 I= 2 D=  6.36D-04 Err=  6.53D-04
      PEZero:  N= 3 I= 1 D=  1.27D-03 Err=  1.27D-07
 Maximum DWI energy   std dev =  0.000004605 at pt    24
 Maximum DWI gradient std dev =  0.055909658 at pt    20
 CORRECTOR INTEGRATION CONVERGENCE:
   Recorrection delta-x convergence threshold:    0.010000
   Delta-x Convergence Met
 Point Number:   1          Path Number:   1
   CHANGE IN THE REACTION COORDINATE =    0.24426
   NET REACTION COORDINATE UP TO THIS POINT =    0.24426
  # OF POINTS ALONG THE PATH =   1
  # OF STEPS =   1

 Calculating another point on the path.
 IRC-IRC-IRC-IRC-IRC-IRC-IRC-IRC-IRC-IRC-IRC-IRC-IRC-IRC-IRC-IRC-IRC-IRC
                          Input orientation:                          
 ---------------------------------------------------------------------
 Center     Atomic      Atomic             Coordinates (Angstroms)
 Number     Number       Type             X           Y           Z
 ---------------------------------------------------------------------
      1          6           0        0.727958    0.963320   -0.118783
      2          6           0       -0.530417    0.886186    0.636656
      3          6           0       -1.689879    1.598283    0.100817
      4          6           0       -1.610218    2.331894   -1.031758
      5          6           0       -0.367107    2.408095   -1.778031
      6          6           0        0.732787    1.746786   -1.353576
      7          6           0        1.792309    0.181724    0.221612
      8          6           0       -0.656683    0.031613    1.691817
      9          1           0       -2.618105    1.524952    0.667732
     10          1           0       -2.467506    2.880229   -1.421074
     11          1           0       -0.359447    3.009450   -2.686598
     12          1           0        1.671006    1.787865   -1.907138
     13          1           0        2.019477   -0.148150    1.230743
     14          1           0        0.155263   -0.262408    2.349892
     15         16           0        0.333634   -1.750680    0.377009
     16          1           0        2.633411    0.041103   -0.447140
     17          1           0       -1.624696   -0.219899    2.109131
     18          8           0       -0.372497   -2.015194   -0.826190
     19          8           0        0.944131   -2.641441    1.302996
 ---------------------------------------------------------------------
                    Distance matrix (angstroms):
                    1          2          3          4          5
     1  C    0.000000
     2  C    1.469744   0.000000
     3  C    2.509450   1.462380   0.000000
     4  C    2.858948   2.457569   1.351761   0.000000
     5  C    2.457569   2.858949   2.436307   1.451914   0.000000
     6  C    1.462380   2.509450   2.829597   2.436306   1.351761
     7  C    1.363672   2.462435   3.761231   4.215609   3.690308
     8  C    2.462434   1.363673   2.460331   3.690309   4.215610
     9  H    3.482840   2.183444   1.090125   2.134305   3.439286
    10  H    3.947340   3.458723   2.136408   1.089578   2.182202
    11  H    3.458724   3.947340   3.395750   2.182202   1.089578
    12  H    2.183444   3.482840   3.919613   3.439286   2.134305
    13  H    2.173616   2.815094   4.252774   4.944109   4.613338
    14  H    2.815092   2.173616   3.453268   4.613338   4.944108
    15  S    2.786951   2.786946   3.922556   4.736096   4.736100
    16  H    2.142207   3.449433   4.627732   4.857766   4.046854
    17  H    3.449433   2.142207   2.709863   4.046856   4.857768
    18  O    3.253148   3.253131   3.956267   4.524532   4.524546
    19  O    3.881042   3.881038   5.134053   6.058864   6.058868
                    6          7          8          9         10
     6  C    0.000000
     7  C    2.460330   0.000000
     8  C    3.761232   2.860349   0.000000
     9  H    3.919613   4.631957   2.669454   0.000000
    10  H    3.395750   5.303429   4.591708   2.494507   0.000000
    11  H    2.136408   4.591707   5.303431   4.307760   2.462146
    12  H    1.090125   2.669453   4.631958   5.009545   4.307760
    13  H    3.453268   1.085710   2.721533   4.962199   6.027954
    14  H    4.252772   2.721534   1.085711   3.703497   5.565543
    15  S    3.922566   2.426121   2.426112   4.418942   5.703052
    16  H    2.709863   1.083724   3.924277   5.569844   5.918491
    17  H    4.627733   3.924277   1.083724   2.471639   4.773203
    18  O    3.956297   3.257410   3.257382   4.450527   5.357995
    19  O    5.134061   3.139913   3.139905   5.518326   7.039081
                   11         12         13         14         15
    11  H    0.000000
    12  H    2.494507   0.000000
    13  H    5.565543   3.703495   0.000000
    14  H    6.027952   4.962197   2.177348   0.000000
    15  S    5.703059   4.418958   2.477707   2.477708   0.000000
    16  H    4.773202   2.471638   1.796669   3.749230   3.029634
    17  H    5.918493   5.569846   3.749228   1.796671   3.029619
    18  O    5.358016   4.450574   3.665838   3.665827   1.419957
    19  O    7.039087   5.518338   2.716264   2.716265   1.422537
                   16         17         18         19
    16  H    0.000000
    17  H    4.973341   0.000000
    18  O    3.661629   3.661584   0.000000
    19  O    3.621145   3.621131   2.580529   0.000000
 Symmetry turned off by external request.
 Stoichiometry    C8H8O2S
 Framework group  C1[X(C8H8O2S)]
 Deg. of freedom    51
 Full point group                 C1      NOp   1
 Rotational constants (GHZ):           1.9745471           0.6972244           0.6516971
 Standard basis: VSTO-6G (5D, 7F)
    57 basis functions,   348 primitive gaussians,    58 cartesian basis functions
    29 alpha electrons       29 beta electrons
       nuclear repulsion energy       337.1104482049 Hartrees.
 Integral buffers will be    131072 words long.
 Regular integral format.
 Two-electron integral symmetry is turned off.
 Do NDO integrals.
 One-electron integrals computed using PRISM.
 NBasis=    57 RedAO= F EigKep=  0.00D+00  NBF=    57
 NBsUse=    57 1.00D-04 EigRej=  0.00D+00 NBFU=    57
 Initial guess from the checkpoint file:  "C:\Users\al6323\OneDrive - Imperial College London\Desktop\TSR20251115\TS_Berny_IRC.chk"
 B after Tr=     0.000046    0.000351    0.000112
         Rot=    1.000000    0.000014    0.000001   -0.000009 Ang=   0.00 deg.
 Keep J ints in memory in canonical form, NReq=1859402.
 Overlap will be assumed to be unity.
 Requested convergence on RMS density matrix=1.00D-08 within  32 cycles.
 Requested convergence on MAX density matrix=1.00D-06.
 Requested convergence on             energy=1.00D-06.
 No special actions if energy rises.
 SCF Done:  E(RPM6) =  0.318145602944E-02 A.U. after   14 cycles
            NFock= 13  Conv=0.45D-08     -V/T= 1.0000
 QCSCF skips out because SCF is already converged.
 Range of M.O.s used for correlation:     1    57
 NBasis=    57 NAE=    29 NBE=    29 NFC=     0 NFV=     0
 NROrb=     57 NOA=    29 NOB=    29 NVA=    28 NVB=    28
 Symmetrizing basis deriv contribution to polar:
 IMax=3 JMax=2 DiffMx= 0.00D+00
 G2DrvN: will do    20 centers at a time, making    1 passes.
 Calling FoFCou, ICntrl=  3107 FMM=F I1Cent=   0 AccDes= 0.00D+00.
 End of G2Drv F.D. properties file   721 does not exist.
 End of G2Drv F.D. properties file   722 does not exist.
 End of G2Drv F.D. properties file   788 does not exist.
          IDoAtm=1111111111111111111
          Differentiating once with respect to nuclear coordinates.
          Electric field/nuclear overlap derivatives assumed to be zero.
 Keep J ints in memory in canonical form, NReq=1861376.
          There are    60 degrees of freedom in the 1st order CPHF.  IDoFFX=5 NUNeed=    60.
 LinEq1:  Iter=  0 NonCon=    57 RMS=1.46D-02 Max=1.73D-01 NDo=    57
 AX will form    60 AO Fock derivatives at one time.
 LinEq1:  Iter=  1 NonCon=    57 RMS=5.71D-03 Max=1.09D-01 NDo=    60
 LinEq1:  Iter=  2 NonCon=    57 RMS=1.56D-03 Max=2.80D-02 NDo=    60
 LinEq1:  Iter=  3 NonCon=    57 RMS=3.21D-04 Max=3.82D-03 NDo=    60
 LinEq1:  Iter=  4 NonCon=    57 RMS=6.72D-05 Max=8.31D-04 NDo=    60
 LinEq1:  Iter=  5 NonCon=    57 RMS=1.80D-05 Max=1.70D-04 NDo=    60
 LinEq1:  Iter=  6 NonCon=    57 RMS=5.77D-06 Max=5.38D-05 NDo=    60
 LinEq1:  Iter=  7 NonCon=    57 RMS=1.87D-06 Max=1.44D-05 NDo=    60
 LinEq1:  Iter=  8 NonCon=    57 RMS=6.02D-07 Max=5.87D-06 NDo=    60
 LinEq1:  Iter=  9 NonCon=    39 RMS=1.53D-07 Max=1.61D-06 NDo=    60
 LinEq1:  Iter= 10 NonCon=    15 RMS=3.52D-08 Max=3.25D-07 NDo=    39
 LinEq1:  Iter= 11 NonCon=     0 RMS=7.44D-09 Max=7.36D-08 NDo=    15
 Linear equations converged to 1.000D-08 1.000D-07 after    11 iterations.
 End of Minotr F.D. properties file   721 does not exist.
 End of Minotr F.D. properties file   722 does not exist.
 End of Minotr F.D. properties file   788 does not exist.
 Calling FoFJK, ICntrl=    100127 FMM=F ISym2X=0 I1Cent= 0 IOpClX= 0 NMat=1 NMatS=1 NMatT=0.
 -------------------------------------------------------------------
 Center     Atomic                   Forces (Hartrees/Bohr)
 Number     Number              X              Y              Z
 -------------------------------------------------------------------
      1        6           0.000468353    0.000126500    0.000096062
      2        6          -0.000144928    0.000088918    0.000464467
      3        6          -0.000261653    0.000027121   -0.000121611
      4        6          -0.000150058   -0.000058366   -0.000092504
      5        6          -0.000006219   -0.000049551   -0.000178830
      6        6           0.000012459    0.000043882   -0.000286233
      7        6           0.002793267    0.004251380    0.000645929
      8        6          -0.001115348    0.004011835    0.002992665
      9        1          -0.000033283    0.000001261   -0.000028270
     10        1          -0.000002283   -0.000008677   -0.000025536
     11        1          -0.000020631   -0.000009807   -0.000014525
     12        1          -0.000009513    0.000002753   -0.000042552
     13        1          -0.000039834   -0.000098447   -0.000235406
     14        1          -0.000180109   -0.000106967   -0.000151579
     15       16          -0.001245390   -0.008673733   -0.002959738
     16        1           0.000328719    0.000643016    0.000191344
     17        1          -0.000042495    0.000620238    0.000414289
     18        8          -0.000813554   -0.000460398   -0.001402449
     19        8           0.000462501   -0.000350957    0.000734476
 -------------------------------------------------------------------
 Cartesian Forces:  Max     0.008673733 RMS     0.001588511
 IRC-IRC-IRC-IRC-IRC-IRC-IRC-IRC-IRC-IRC-IRC-IRC-IRC-IRC-IRC-IRC-IRC-IRC
 Pt  2 Step number   1 out of a maximum of  20
 Modified Bulirsch-Stoer Extrapolation Cycles:
    EPS =    0.000010000000000
      PEZero:  N= 2 I= 1 D=  1.27D-03 Err=  2.04D-05
      PEZero:  N= 3 I= 2 D=  1.27D-03 Err=  1.36D-05
      PEZero:  N= 3 I= 1 D=  2.54D-03 Err=  8.71D-08
 Maximum DWI energy   std dev =  0.000003103 at pt    14
 Maximum DWI gradient std dev =  0.030291815 at pt    12
 CORRECTOR INTEGRATION CONVERGENCE:
   Recorrection delta-x convergence threshold:    0.010000
   Delta-x Convergence Met
 Point Number:   2          Path Number:   1
   CHANGE IN THE REACTION COORDINATE =    0.24424
   NET REACTION COORDINATE UP TO THIS POINT =    0.48851
  # OF POINTS ALONG THE PATH =   2
  # OF STEPS =   1

 Calculating another point on the path.
 IRC-IRC-IRC-IRC-IRC-IRC-IRC-IRC-IRC-IRC-IRC-IRC-IRC-IRC-IRC-IRC-IRC-IRC
                          Input orientation:                          
 ---------------------------------------------------------------------
 Center     Atomic      Atomic             Coordinates (Angstroms)
 Number     Number       Type             X           Y           Z
 ---------------------------------------------------------------------
      1          6           0        0.730438    0.963248   -0.118200
      2          6           0       -0.531053    0.885924    0.639110
      3          6           0       -1.690904    1.598667    0.100019
      4          6           0       -1.610960    2.331525   -1.031812
      5          6           0       -0.366775    2.407791   -1.778730
      6          6           0        0.732528    1.747217   -1.354834
      7          6           0        1.801748    0.198104    0.223625
      8          6           0       -0.660783    0.047163    1.701958
      9          1           0       -2.619411    1.524963    0.666577
     10          1           0       -2.467789    2.879821   -1.422202
     11          1           0       -0.360271    3.009009   -2.687401
     12          1           0        1.670598    1.787931   -1.908832
     13          1           0        2.017932   -0.154801    1.226943
     14          1           0        0.153236   -0.269089    2.346381
     15         16           0        0.331908   -1.762611    0.372915
     16          1           0        2.648396    0.068401   -0.440081
     17          1           0       -1.627921   -0.193718    2.127120
     18          8           0       -0.374775   -2.016602   -0.830129
     19          8           0        0.945404   -2.642478    1.305011
 ---------------------------------------------------------------------
                    Distance matrix (angstroms):
                    1          2          3          4          5
     1  C    0.000000
     2  C    1.473382   0.000000
     3  C    2.512821   1.464198   0.000000
     4  C    2.861645   2.459256   1.350745   0.000000
     5  C    2.459256   2.861645   2.436739   1.453169   0.000000
     6  C    1.464198   2.512821   2.830492   2.436739   1.350745
     7  C    1.360146   2.467323   3.765033   4.215944   3.687090
     8  C    2.467323   1.360146   2.456526   3.687091   4.215945
     9  H    3.486099   2.184117   1.090205   2.133551   3.439953
    10  H    3.949979   3.460575   2.135899   1.089583   2.182701
    11  H    3.460575   3.949979   3.395492   2.182702   1.089582
    12  H    2.184117   3.486099   3.920586   3.439953   2.133551
    13  H    2.171885   2.815312   4.254418   4.944962   4.613867
    14  H    2.815311   2.171885   3.454780   4.613867   4.944961
    15  S    2.798273   2.798267   3.932483   4.744464   4.744469
    16  H    2.140777   3.455704   4.632812   4.859423   4.044253
    17  H    3.455704   2.140776   2.706612   4.044254   4.859424
    18  O    3.256969   3.256953   3.958224   4.524935   4.524949
    19  O    3.882396   3.882392   5.137064   6.061059   6.061063
                    6          7          8          9         10
     6  C    0.000000
     7  C    2.456525   0.000000
     8  C    3.765033   2.876162   0.000000
     9  H    3.920586   4.637177   2.663105   0.000000
    10  H    3.395491   5.303707   4.587984   2.494319   0.000000
    11  H    2.135899   4.587983   5.303708   4.307584   2.461515
    12  H    1.090205   2.663105   4.637177   5.010595   4.307584
    13  H    3.454780   1.085322   2.727993   4.963927   6.028980
    14  H    4.254417   2.727994   1.085322   3.705124   5.566653
    15  S    3.932494   2.455019   2.455010   4.427716   5.710773
    16  H    2.706612   1.083578   3.942011   5.576384   5.919797
    17  H    4.632812   3.942010   1.083578   2.463758   4.769665
    18  O    3.958254   3.279111   3.279084   4.452101   5.357819
    19  O    5.137072   3.157788   3.157780   5.521148   7.041546
                   11         12         13         14         15
    11  H    0.000000
    12  H    2.494319   0.000000
    13  H    5.566654   3.705122   0.000000
    14  H    6.028979   4.963926   2.177911   0.000000
    15  S    5.710780   4.427732   2.481350   2.481350   0.000000
    16  H    4.769665   2.463758   1.796182   3.755542   3.062627
    17  H    5.919799   5.576385   3.755540   1.796184   3.062612
    18  O    5.357839   4.452148   3.663727   3.663716   1.418177
    19  O    7.041551   5.521161   2.710157   2.710158   1.421037
                   16         17         18         19
    16  H    0.000000
    17  H    4.994609   0.000000
    18  O    3.693093   3.693048   0.000000
    19  O    3.646148   3.646134   2.587163   0.000000
 Symmetry turned off by external request.
 Stoichiometry    C8H8O2S
 Framework group  C1[X(C8H8O2S)]
 Deg. of freedom    51
 Full point group                 C1      NOp   1
 Rotational constants (GHZ):           1.9593227           0.6951158           0.6502254
 Standard basis: VSTO-6G (5D, 7F)
    57 basis functions,   348 primitive gaussians,    58 cartesian basis functions
    29 alpha electrons       29 beta electrons
       nuclear repulsion energy       336.7984832999 Hartrees.
 Integral buffers will be    131072 words long.
 Regular integral format.
 Two-electron integral symmetry is turned off.
 Do NDO integrals.
 One-electron integrals computed using PRISM.
 NBasis=    57 RedAO= F EigKep=  0.00D+00  NBF=    57
 NBsUse=    57 1.00D-04 EigRej=  0.00D+00 NBFU=    57
 Initial guess from the checkpoint file:  "C:\Users\al6323\OneDrive - Imperial College London\Desktop\TSR20251115\TS_Berny_IRC.chk"
 B after Tr=     0.000059    0.000416    0.000141
         Rot=    1.000000    0.000022    0.000001   -0.000013 Ang=   0.00 deg.
 Keep J ints in memory in canonical form, NReq=1859402.
 Overlap will be assumed to be unity.
 Requested convergence on RMS density matrix=1.00D-08 within  32 cycles.
 Requested convergence on MAX density matrix=1.00D-06.
 Requested convergence on             energy=1.00D-06.
 No special actions if energy rises.
 SCF Done:  E(RPM6) =  0.238105750429E-02 A.U. after   13 cycles
            NFock= 12  Conv=0.91D-08     -V/T= 1.0000
 QCSCF skips out because SCF is already converged.
 Range of M.O.s used for correlation:     1    57
 NBasis=    57 NAE=    29 NBE=    29 NFC=     0 NFV=     0
 NROrb=     57 NOA=    29 NOB=    29 NVA=    28 NVB=    28
 Symmetrizing basis deriv contribution to polar:
 IMax=3 JMax=2 DiffMx= 0.00D+00
 G2DrvN: will do    20 centers at a time, making    1 passes.
 Calling FoFCou, ICntrl=  3107 FMM=F I1Cent=   0 AccDes= 0.00D+00.
 End of G2Drv F.D. properties file   721 does not exist.
 End of G2Drv F.D. properties file   722 does not exist.
 End of G2Drv F.D. properties file   788 does not exist.
          IDoAtm=1111111111111111111
          Differentiating once with respect to nuclear coordinates.
          Electric field/nuclear overlap derivatives assumed to be zero.
 Keep J ints in memory in canonical form, NReq=1861376.
          There are    60 degrees of freedom in the 1st order CPHF.  IDoFFX=5 NUNeed=    60.
 LinEq1:  Iter=  0 NonCon=    57 RMS=1.46D-02 Max=1.78D-01 NDo=    57
 AX will form    60 AO Fock derivatives at one time.
 LinEq1:  Iter=  1 NonCon=    57 RMS=5.80D-03 Max=1.12D-01 NDo=    60
 LinEq1:  Iter=  2 NonCon=    57 RMS=1.47D-03 Max=2.55D-02 NDo=    60
 LinEq1:  Iter=  3 NonCon=    57 RMS=2.91D-04 Max=3.33D-03 NDo=    60
 LinEq1:  Iter=  4 NonCon=    57 RMS=6.19D-05 Max=7.50D-04 NDo=    60
 LinEq1:  Iter=  5 NonCon=    57 RMS=1.67D-05 Max=1.78D-04 NDo=    60
 LinEq1:  Iter=  6 NonCon=    57 RMS=4.99D-06 Max=4.04D-05 NDo=    60
 LinEq1:  Iter=  7 NonCon=    57 RMS=1.51D-06 Max=1.33D-05 NDo=    60
 LinEq1:  Iter=  8 NonCon=    57 RMS=5.29D-07 Max=4.72D-06 NDo=    60
 LinEq1:  Iter=  9 NonCon=    40 RMS=1.39D-07 Max=1.38D-06 NDo=    60
 LinEq1:  Iter= 10 NonCon=    16 RMS=3.22D-08 Max=2.65D-07 NDo=    40
 LinEq1:  Iter= 11 NonCon=     0 RMS=6.55D-09 Max=6.78D-08 NDo=    16
 Linear equations converged to 1.000D-08 1.000D-07 after    11 iterations.
 End of Minotr F.D. properties file   721 does not exist.
 End of Minotr F.D. properties file   722 does not exist.
 End of Minotr F.D. properties file   788 does not exist.
 Calling FoFJK, ICntrl=    100127 FMM=F ISym2X=0 I1Cent= 0 IOpClX= 0 NMat=1 NMatS=1 NMatT=0.
 -------------------------------------------------------------------
 Center     Atomic                   Forces (Hartrees/Bohr)
 Number     Number              X              Y              Z
 -------------------------------------------------------------------
      1        6           0.000561999    0.000147249    0.000150314
      2        6          -0.000142771    0.000104083    0.000573452
      3        6          -0.000280392    0.000075250   -0.000172722
      4        6          -0.000190973   -0.000080311   -0.000124335
      5        6          -0.000013218   -0.000069426   -0.000231046
      6        6          -0.000028059    0.000090685   -0.000324237
      7        6           0.003246327    0.005221563    0.000880517
      8        6          -0.001207255    0.004948590    0.003554309
      9        1          -0.000036249   -0.000000175   -0.000035158
     10        1          -0.000007117   -0.000015510   -0.000033880
     11        1          -0.000025112   -0.000016614   -0.000023082
     12        1          -0.000014064    0.000001210   -0.000048497
     13        1          -0.000020362   -0.000088840   -0.000217407
     14        1          -0.000174134   -0.000098203   -0.000125352
     15       16          -0.001554264   -0.010676368   -0.003678848
     16        1           0.000396373    0.000809488    0.000250672
     17        1          -0.000036829    0.000782898    0.000510892
     18        8          -0.001021070   -0.000680433   -0.001770500
     19        8           0.000547169   -0.000455137    0.000864910
 -------------------------------------------------------------------
 Cartesian Forces:  Max     0.010676368 RMS     0.001946306
 IRC-IRC-IRC-IRC-IRC-IRC-IRC-IRC-IRC-IRC-IRC-IRC-IRC-IRC-IRC-IRC-IRC-IRC
 Pt  3 Step number   1 out of a maximum of  20
 Modified Bulirsch-Stoer Extrapolation Cycles:
    EPS =    0.000010000000000
      PEZero:  N= 2 I= 1 D=  1.27D-03 Err=  2.44D-05
      PEZero:  N= 3 I= 2 D=  1.27D-03 Err=  1.62D-05
      PEZero:  N= 3 I= 1 D=  2.54D-03 Err=  7.89D-08
 Maximum DWI energy   std dev =  0.000002226 at pt    67
 Maximum DWI gradient std dev =  0.016398640 at pt    24
 CORRECTOR INTEGRATION CONVERGENCE:
   Recorrection delta-x convergence threshold:    0.010000
   Delta-x Convergence Met
 Point Number:   3          Path Number:   1
   CHANGE IN THE REACTION COORDINATE =    0.24427
   NET REACTION COORDINATE UP TO THIS POINT =    0.73278
  # OF POINTS ALONG THE PATH =   3
  # OF STEPS =   1

 Calculating another point on the path.
 IRC-IRC-IRC-IRC-IRC-IRC-IRC-IRC-IRC-IRC-IRC-IRC-IRC-IRC-IRC-IRC-IRC-IRC
                          Input orientation:                          
 ---------------------------------------------------------------------
 Center     Atomic      Atomic             Coordinates (Angstroms)
 Number     Number       Type             X           Y           Z
 ---------------------------------------------------------------------
      1          6           0        0.732535    0.963437   -0.117612
      2          6           0       -0.531529    0.885955    0.641243
      3          6           0       -1.691757    1.599071    0.099292
      4          6           0       -1.611647    2.331189   -1.032040
      5          6           0       -0.366625    2.407507   -1.779460
      6          6           0        0.732250    1.747657   -1.355906
      7          6           0        1.810928    0.214275    0.226175
      8          6           0       -0.664271    0.062558    1.712113
      9          1           0       -2.620599    1.524920    0.665368
     10          1           0       -2.468184    2.879214   -1.423445
     11          1           0       -0.361126    3.008374   -2.688367
     12          1           0        1.670091    1.787929   -1.910450
     13          1           0        2.017376   -0.159370    1.223585
     14          1           0        0.150951   -0.273764    2.344061
     15         16           0        0.330135   -1.774666    0.368732
     16          1           0        2.663413    0.096961   -0.432123
     17          1           0       -1.630483   -0.166233    2.145632
     18          8           0       -0.377107   -2.018296   -0.834187
     19          8           0        0.946626   -2.643569    1.306934
 ---------------------------------------------------------------------
                    Distance matrix (angstroms):
                    1          2          3          4          5
     1  C    0.000000
     2  C    1.476388   0.000000
     3  C    2.515605   1.465733   0.000000
     4  C    2.863933   2.460738   1.349936   0.000000
     5  C    2.460738   2.863934   2.437058   1.454146   0.000000
     6  C    1.465733   2.515605   2.831164   2.437058   1.349936
     7  C    1.357338   2.471951   3.768629   4.216451   3.684370
     8  C    2.471951   1.357338   2.453119   3.684370   4.216451
     9  H    3.488814   2.184736   1.090269   2.132896   3.440427
    10  H    3.952215   3.462174   2.135493   1.089580   2.183072
    11  H    3.462174   3.952215   3.395255   2.183072   1.089579
    12  H    2.184736   3.488814   3.921320   3.440427   2.132896
    13  H    2.170327   2.815803   4.256033   4.945760   4.614174
    14  H    2.815802   2.170327   3.455731   4.614173   4.945759
    15  S    2.809922   2.809916   3.942429   4.752970   4.752975
    16  H    2.139624   3.461543   4.637483   4.860845   4.041667
    17  H    3.461543   2.139623   2.703250   4.041667   4.860846
    18  O    3.261214   3.261198   3.960434   4.525622   4.525636
    19  O    3.884026   3.884022   5.139986   6.063314   6.063318
                    6          7          8          9         10
     6  C    0.000000
     7  C    2.453118   0.000000
     8  C    3.768630   2.890959   0.000000
     9  H    3.921320   4.642102   2.657329   0.000000
    10  H    3.395255   5.304144   4.584689   2.494089   0.000000
    11  H    2.135493   4.584689   5.304145   4.307365   2.460976
    12  H    1.090269   2.657328   4.642103   5.011390   4.307365
    13  H    3.455731   1.084923   2.734802   4.965808   6.029926
    14  H    4.256032   2.734803   1.084923   3.706045   5.567337
    15  S    3.942440   2.483738   2.483728   4.436450   5.718486
    16  H    2.703250   1.083443   3.958840   5.582503   5.920890
    17  H    4.637483   3.958840   1.083443   2.455913   4.766005
    18  O    3.960463   3.300945   3.300918   4.453796   5.357745
    19  O    5.139994   3.175268   3.175261   5.523857   7.043935
                   11         12         13         14         15
    11  H    0.000000
    12  H    2.494089   0.000000
    13  H    5.567337   3.706044   0.000000
    14  H    6.029925   4.965807   2.179930   0.000000
    15  S    5.718494   4.436467   2.487315   2.487315   0.000000
    16  H    4.766005   2.455914   1.795673   3.762593   3.096537
    17  H    5.920891   5.582503   3.762591   1.795674   3.096523
    18  O    5.357765   4.453842   3.663821   3.663810   1.416532
    19  O    7.043941   5.523870   2.706418   2.706419   1.419604
                   16         17         18         19
    16  H    0.000000
    17  H    5.015141   0.000000
    18  O    3.725685   3.725642   0.000000
    19  O    3.671809   3.671798   2.593769   0.000000
 Symmetry turned off by external request.
 Stoichiometry    C8H8O2S
 Framework group  C1[X(C8H8O2S)]
 Deg. of freedom    51
 Full point group                 C1      NOp   1
 Rotational constants (GHZ):           1.9443104           0.6929206           0.6487703
 Standard basis: VSTO-6G (5D, 7F)
    57 basis functions,   348 primitive gaussians,    58 cartesian basis functions
    29 alpha electrons       29 beta electrons
       nuclear repulsion energy       336.4837539260 Hartrees.
 Integral buffers will be    131072 words long.
 Regular integral format.
 Two-electron integral symmetry is turned off.
 Do NDO integrals.
 One-electron integrals computed using PRISM.
 NBasis=    57 RedAO= F EigKep=  0.00D+00  NBF=    57
 NBsUse=    57 1.00D-04 EigRej=  0.00D+00 NBFU=    57
 Initial guess from the checkpoint file:  "C:\Users\al6323\OneDrive - Imperial College London\Desktop\TSR20251115\TS_Berny_IRC.chk"
 B after Tr=     0.000074    0.000481    0.000172
         Rot=    1.000000    0.000029    0.000002   -0.000017 Ang=   0.00 deg.
 Keep J ints in memory in canonical form, NReq=1859402.
 Overlap will be assumed to be unity.
 Requested convergence on RMS density matrix=1.00D-08 within  32 cycles.
 Requested convergence on MAX density matrix=1.00D-06.
 Requested convergence on             energy=1.00D-06.
 No special actions if energy rises.
 SCF Done:  E(RPM6) =  0.146306489114E-02 A.U. after   13 cycles
            NFock= 12  Conv=0.76D-08     -V/T= 1.0000
 QCSCF skips out because SCF is already converged.
 Range of M.O.s used for correlation:     1    57
 NBasis=    57 NAE=    29 NBE=    29 NFC=     0 NFV=     0
 NROrb=     57 NOA=    29 NOB=    29 NVA=    28 NVB=    28
 Symmetrizing basis deriv contribution to polar:
 IMax=3 JMax=2 DiffMx= 0.00D+00
 G2DrvN: will do    20 centers at a time, making    1 passes.
 Calling FoFCou, ICntrl=  3107 FMM=F I1Cent=   0 AccDes= 0.00D+00.
 End of G2Drv F.D. properties file   721 does not exist.
 End of G2Drv F.D. properties file   722 does not exist.
 End of G2Drv F.D. properties file   788 does not exist.
          IDoAtm=1111111111111111111
          Differentiating once with respect to nuclear coordinates.
          Electric field/nuclear overlap derivatives assumed to be zero.
 Keep J ints in memory in canonical form, NReq=1861376.
          There are    60 degrees of freedom in the 1st order CPHF.  IDoFFX=5 NUNeed=    60.
 LinEq1:  Iter=  0 NonCon=    57 RMS=1.46D-02 Max=1.83D-01 NDo=    57
 AX will form    60 AO Fock derivatives at one time.
 LinEq1:  Iter=  1 NonCon=    57 RMS=5.87D-03 Max=1.14D-01 NDo=    60
 LinEq1:  Iter=  2 NonCon=    57 RMS=1.39D-03 Max=2.30D-02 NDo=    60
 LinEq1:  Iter=  3 NonCon=    57 RMS=2.65D-04 Max=2.85D-03 NDo=    60
 LinEq1:  Iter=  4 NonCon=    57 RMS=5.76D-05 Max=6.68D-04 NDo=    60
 LinEq1:  Iter=  5 NonCon=    57 RMS=1.72D-05 Max=1.81D-04 NDo=    60
 LinEq1:  Iter=  6 NonCon=    57 RMS=5.04D-06 Max=4.80D-05 NDo=    60
 LinEq1:  Iter=  7 NonCon=    57 RMS=1.30D-06 Max=1.46D-05 NDo=    60
 LinEq1:  Iter=  8 NonCon=    57 RMS=4.13D-07 Max=2.99D-06 NDo=    60
 LinEq1:  Iter=  9 NonCon=    45 RMS=1.13D-07 Max=1.14D-06 NDo=    60
 LinEq1:  Iter= 10 NonCon=    17 RMS=2.67D-08 Max=2.15D-07 NDo=    45
 LinEq1:  Iter= 11 NonCon=     0 RMS=5.82D-09 Max=5.86D-08 NDo=    17
 Linear equations converged to 1.000D-08 1.000D-07 after    11 iterations.
 End of Minotr F.D. properties file   721 does not exist.
 End of Minotr F.D. properties file   722 does not exist.
 End of Minotr F.D. properties file   788 does not exist.
 Calling FoFJK, ICntrl=    100127 FMM=F ISym2X=0 I1Cent= 0 IOpClX= 0 NMat=1 NMatS=1 NMatT=0.
 -------------------------------------------------------------------
 Center     Atomic                   Forces (Hartrees/Bohr)
 Number     Number              X              Y              Z
 -------------------------------------------------------------------
      1        6           0.000565820    0.000201699    0.000190773
      2        6          -0.000113856    0.000160063    0.000598845
      3        6          -0.000256871    0.000110688   -0.000194670
      4        6          -0.000208818   -0.000090926   -0.000169402
      5        6          -0.000043578   -0.000080794   -0.000268573
      6        6          -0.000061578    0.000122615   -0.000311965
      7        6           0.003377693    0.005690614    0.001107786
      8        6          -0.001110704    0.005415636    0.003802463
      9        1          -0.000035027   -0.000001747   -0.000038943
     10        1          -0.000011927   -0.000022486   -0.000040174
     11        1          -0.000027780   -0.000023462   -0.000030661
     12        1          -0.000017808   -0.000000659   -0.000049308
     13        1           0.000004291   -0.000053017   -0.000186154
     14        1          -0.000161248   -0.000063140   -0.000086954
     15       16          -0.001735692   -0.011730293   -0.004088737
     16        1           0.000421450    0.000907823    0.000298128
     17        1          -0.000015549    0.000880949    0.000560560
     18        8          -0.001135742   -0.000894819   -0.001983344
     19        8           0.000566924   -0.000528743    0.000890332
 -------------------------------------------------------------------
 Cartesian Forces:  Max     0.011730293 RMS     0.002128515
 IRC-IRC-IRC-IRC-IRC-IRC-IRC-IRC-IRC-IRC-IRC-IRC-IRC-IRC-IRC-IRC-IRC-IRC
 Pt  4 Step number   1 out of a maximum of  20
 Modified Bulirsch-Stoer Extrapolation Cycles:
    EPS =    0.000010000000000
      PEZero:  N= 2 I= 1 D=  1.27D-03 Err=  2.72D-05
      PEZero:  N= 3 I= 2 D=  1.27D-03 Err=  1.81D-05
      PEZero:  N= 3 I= 1 D=  2.54D-03 Err=  6.56D-08
 Maximum DWI energy   std dev =  0.000001578 at pt    67
 Maximum DWI gradient std dev =  0.011106024 at pt    24
 CORRECTOR INTEGRATION CONVERGENCE:
   Recorrection delta-x convergence threshold:    0.010000
   Delta-x Convergence Met
 Point Number:   4          Path Number:   1
   CHANGE IN THE REACTION COORDINATE =    0.24429
   NET REACTION COORDINATE UP TO THIS POINT =    0.97707
  # OF POINTS ALONG THE PATH =   4
  # OF STEPS =   1

 Calculating another point on the path.
 IRC-IRC-IRC-IRC-IRC-IRC-IRC-IRC-IRC-IRC-IRC-IRC-IRC-IRC-IRC-IRC-IRC-IRC
                          Input orientation:                          
 ---------------------------------------------------------------------
 Center     Atomic      Atomic             Coordinates (Angstroms)
 Number     Number       Type             X           Y           Z
 ---------------------------------------------------------------------
      1          6           0        0.734327    0.963889   -0.116985
      2          6           0       -0.531854    0.886277    0.643140
      3          6           0       -1.692458    1.599505    0.098613
      4          6           0       -1.612304    2.330869   -1.032426
      5          6           0       -0.366630    2.407226   -1.780238
      6          6           0        0.731940    1.748115   -1.356820
      7          6           0        1.819768    0.230289    0.229279
      8          6           0       -0.667099    0.077858    1.722221
      9          1           0       -2.621662    1.524838    0.664127
     10          1           0       -2.468692    2.878412   -1.424803
     11          1           0       -0.362013    3.007549   -2.689499
     12          1           0        1.669501    1.787876   -1.911976
     13          1           0        2.017574   -0.162028    1.220826
     14          1           0        0.148669   -0.276575    2.342791
     15         16           0        0.328317   -1.786815    0.364463
     16          1           0        2.678229    0.126404   -0.423277
     17          1           0       -1.632248   -0.137807    2.164433
     18          8           0       -0.379479   -2.020331   -0.838346
     19          8           0        0.947776   -2.644731    1.308732
 ---------------------------------------------------------------------
                    Distance matrix (angstroms):
                    1          2          3          4          5
     1  C    0.000000
     2  C    1.478861   0.000000
     3  C    2.517892   1.467040   0.000000
     4  C    2.865893   2.462060   1.349284   0.000000
     5  C    2.462060   2.865894   2.437276   1.454908   0.000000
     6  C    1.467040   2.517892   2.831621   2.437276   1.349284
     7  C    1.355083   2.476233   3.771944   4.217043   3.682058
     8  C    2.476232   1.355083   2.450076   3.682058   4.217044
     9  H    3.491055   2.185292   1.090321   2.132318   3.440741
    10  H    3.954127   3.463572   2.135167   1.089570   2.183349
    11  H    3.463572   3.954127   3.395031   2.183349   1.089570
    12  H    2.185291   3.491055   3.921827   3.440741   2.132318
    13  H    2.168905   2.816425   4.257546   4.946483   4.614313
    14  H    2.816424   2.168905   3.456264   4.614312   4.946483
    15  S    2.821880   2.821875   3.952389   4.761579   4.761583
    16  H    2.138679   3.466884   4.641691   4.862036   4.039141
    17  H    3.466884   2.138679   2.699905   4.039141   4.862038
    18  O    3.265960   3.265944   3.962956   4.526639   4.526653
    19  O    3.885919   3.885915   5.142836   6.065610   6.065613
                    6          7          8          9         10
     6  C    0.000000
     7  C    2.450076   0.000000
     8  C    3.771944   2.904586   0.000000
     9  H    3.921827   4.646639   2.652100   0.000000
    10  H    3.395031   5.304661   4.581769   2.493831   0.000000
    11  H    2.135167   4.581768   5.304662   4.307116   2.460533
    12  H    1.090321   2.652099   4.646639   5.011944   4.307116
    13  H    3.456264   1.084531   2.741608   4.967690   6.030772
    14  H    4.257546   2.741609   1.084531   3.706445   5.567700
    15  S    3.952399   2.512252   2.512243   4.445135   5.726175
    16  H    2.699905   1.083317   3.974511   5.588104   5.921773
    17  H    4.641692   3.974510   1.083317   2.448315   4.762335
    18  O    3.962985   3.322921   3.322894   4.455674   5.357838
    19  O    5.142844   3.192386   3.192379   5.526455   7.046245
                   11         12         13         14         15
    11  H    0.000000
    12  H    2.493831   0.000000
    13  H    5.567701   3.706445   0.000000
    14  H    6.030772   4.967689   2.182827   0.000000
    15  S    5.726182   4.445151   2.495372   2.495373   0.000000
    16  H    4.762334   2.448315   1.795197   3.769907   3.130979
    17  H    5.921774   5.588105   3.769905   1.795197   3.130964
    18  O    5.357858   4.455721   3.665971   3.665960   1.415010
    19  O    7.046251   5.526468   2.704812   2.704813   1.418236
                   16         17         18         19
    16  H    0.000000
    17  H    5.034507   0.000000
    18  O    3.759033   3.758990   0.000000
    19  O    3.697771   3.697758   2.600274   0.000000
 Symmetry turned off by external request.
 Stoichiometry    C8H8O2S
 Framework group  C1[X(C8H8O2S)]
 Deg. of freedom    51
 Full point group                 C1      NOp   1
 Rotational constants (GHZ):           1.9295456           0.6906413           0.6473381
 Standard basis: VSTO-6G (5D, 7F)
    57 basis functions,   348 primitive gaussians,    58 cartesian basis functions
    29 alpha electrons       29 beta electrons
       nuclear repulsion energy       336.1680311102 Hartrees.
 Integral buffers will be    131072 words long.
 Regular integral format.
 Two-electron integral symmetry is turned off.
 Do NDO integrals.
 One-electron integrals computed using PRISM.
 NBasis=    57 RedAO= F EigKep=  0.00D+00  NBF=    57
 NBsUse=    57 1.00D-04 EigRej=  0.00D+00 NBFU=    57
 Initial guess from the checkpoint file:  "C:\Users\al6323\OneDrive - Imperial College London\Desktop\TSR20251115\TS_Berny_IRC.chk"
 B after Tr=     0.000088    0.000536    0.000201
         Rot=    1.000000    0.000036    0.000002   -0.000021 Ang=   0.00 deg.
 Keep J ints in memory in canonical form, NReq=1859402.
 Overlap will be assumed to be unity.
 Requested convergence on RMS density matrix=1.00D-08 within  32 cycles.
 Requested convergence on MAX density matrix=1.00D-06.
 Requested convergence on             energy=1.00D-06.
 No special actions if energy rises.
 SCF Done:  E(RPM6) =  0.494071493222E-03 A.U. after   13 cycles
            NFock= 12  Conv=0.64D-08     -V/T= 1.0000
 QCSCF skips out because SCF is already converged.
 Range of M.O.s used for correlation:     1    57
 NBasis=    57 NAE=    29 NBE=    29 NFC=     0 NFV=     0
 NROrb=     57 NOA=    29 NOB=    29 NVA=    28 NVB=    28
 Symmetrizing basis deriv contribution to polar:
 IMax=3 JMax=2 DiffMx= 0.00D+00
 G2DrvN: will do    20 centers at a time, making    1 passes.
 Calling FoFCou, ICntrl=  3107 FMM=F I1Cent=   0 AccDes= 0.00D+00.
 End of G2Drv F.D. properties file   721 does not exist.
 End of G2Drv F.D. properties file   722 does not exist.
 End of G2Drv F.D. properties file   788 does not exist.
          IDoAtm=1111111111111111111
          Differentiating once with respect to nuclear coordinates.
          Electric field/nuclear overlap derivatives assumed to be zero.
 Keep J ints in memory in canonical form, NReq=1861376.
          There are    60 degrees of freedom in the 1st order CPHF.  IDoFFX=5 NUNeed=    60.
 LinEq1:  Iter=  0 NonCon=    57 RMS=1.46D-02 Max=1.87D-01 NDo=    57
 AX will form    60 AO Fock derivatives at one time.
 LinEq1:  Iter=  1 NonCon=    57 RMS=5.94D-03 Max=1.16D-01 NDo=    60
 LinEq1:  Iter=  2 NonCon=    57 RMS=1.33D-03 Max=2.08D-02 NDo=    60
 LinEq1:  Iter=  3 NonCon=    57 RMS=2.51D-04 Max=2.49D-03 NDo=    60
 LinEq1:  Iter=  4 NonCon=    57 RMS=5.43D-05 Max=5.94D-04 NDo=    60
 LinEq1:  Iter=  5 NonCon=    57 RMS=1.87D-05 Max=1.98D-04 NDo=    60
 LinEq1:  Iter=  6 NonCon=    57 RMS=5.54D-06 Max=4.99D-05 NDo=    60
 LinEq1:  Iter=  7 NonCon=    57 RMS=1.17D-06 Max=1.35D-05 NDo=    60
 LinEq1:  Iter=  8 NonCon=    57 RMS=3.97D-07 Max=3.64D-06 NDo=    60
 LinEq1:  Iter=  9 NonCon=    46 RMS=1.12D-07 Max=1.08D-06 NDo=    60
 LinEq1:  Iter= 10 NonCon=    17 RMS=2.62D-08 Max=2.00D-07 NDo=    60
 LinEq1:  Iter= 11 NonCon=     0 RMS=5.34D-09 Max=5.45D-08 NDo=    17
 Linear equations converged to 1.000D-08 1.000D-07 after    11 iterations.
 End of Minotr F.D. properties file   721 does not exist.
 End of Minotr F.D. properties file   722 does not exist.
 End of Minotr F.D. properties file   788 does not exist.
 Calling FoFJK, ICntrl=    100127 FMM=F ISym2X=0 I1Cent= 0 IOpClX= 0 NMat=1 NMatS=1 NMatT=0.
 -------------------------------------------------------------------
 Center     Atomic                   Forces (Hartrees/Bohr)
 Number     Number              X              Y              Z
 -------------------------------------------------------------------
      1        6           0.000527472    0.000278473    0.000225997
      2        6          -0.000071917    0.000241738    0.000585865
      3        6          -0.000215829    0.000136739   -0.000200060
      4        6          -0.000215756   -0.000097598   -0.000215878
      5        6          -0.000080674   -0.000089325   -0.000296936
      6        6          -0.000087785    0.000144549   -0.000276997
      7        6           0.003296254    0.005826124    0.001315588
      8        6          -0.000902029    0.005568833    0.003836035
      9        1          -0.000031654   -0.000002911   -0.000040237
     10        1          -0.000016273   -0.000028911   -0.000044792
     11        1          -0.000029239   -0.000029708   -0.000037014
     12        1          -0.000020400   -0.000002201   -0.000046992
     13        1           0.000024958   -0.000006800   -0.000148922
     14        1          -0.000142171   -0.000017004   -0.000048672
[...]
   1                   -0.10555 -20.76230
   2                   -0.10551 -20.51797
   3                   -0.10547 -20.27365
   4                   -0.10541 -20.02932
   5                   -0.10536 -19.78500
   6                   -0.10530 -19.54068
   7                   -0.10523 -19.29635
   8                   -0.10515 -19.05203
   9                   -0.10507 -18.80771
  10                   -0.10498 -18.56339
  11                   -0.10488 -18.31906
  12                   -0.10478 -18.07474
  13                   -0.10467 -17.83042
  14                   -0.10455 -17.58610
  15                   -0.10443 -17.34178
  16                   -0.10429 -17.09746
  17                   -0.10415 -16.85313
  18                   -0.10401 -16.60881
  19                   -0.10385 -16.36449
  20                   -0.10369 -16.12017
  21                   -0.10351 -15.87585
  22                   -0.10333 -15.63153
  23                   -0.10315 -15.38721
  24                   -0.10295 -15.14288
  25                   -0.10274 -14.89856
  26                   -0.10253 -14.65424
  27                   -0.10230 -14.40992
  28                   -0.10207 -14.16560
  29                   -0.10182 -13.92127
  30                   -0.10157 -13.67695
  31                   -0.10131 -13.43263
  32                   -0.10103 -13.18831
  33                   -0.10075 -12.94399
  34                   -0.10045 -12.69966
  35                   -0.10015 -12.45534
  36                   -0.09983 -12.21102
  37                   -0.09950 -11.96670
  38                   -0.09916 -11.72238
  39                   -0.09881 -11.47806
  40                   -0.09845 -11.23373
  41                   -0.09807 -10.98941
  42                   -0.09769 -10.74509
  43                   -0.09729 -10.50077
  44                   -0.09687 -10.25645
  45                   -0.09645 -10.01213
  46                   -0.09601  -9.76781
  47                   -0.09556  -9.52348
  48                   -0.09510  -9.27916
  49                   -0.09462  -9.03484
  50                   -0.09413  -8.79052
  51                   -0.09362  -8.54620
  52                   -0.09310  -8.30189
  53                   -0.09257  -8.05757
  54                   -0.09202  -7.81327
  55                   -0.09145  -7.56897
  56                   -0.09087  -7.32470
  57                   -0.09026  -7.08048
  58                   -0.08963  -6.83632
  59                   -0.08895  -6.59225
  60                   -0.08822  -6.34826
  61                   -0.08741  -6.10430
  62                   -0.08648  -5.86030
  63                   -0.08540  -5.61624
  64                   -0.08415  -5.37217
  65                   -0.08268  -5.12818
  66                   -0.08093  -4.88433
  67                   -0.07884  -4.64054
  68                   -0.07631  -4.39665
  69                   -0.07326  -4.15261
  70                   -0.06965  -3.90846
  71                   -0.06549  -3.66424
  72                   -0.06083  -3.41998
  73                   -0.05572  -3.17570
  74                   -0.05024  -2.93142
  75                   -0.04449  -2.68713
  76                   -0.03854  -2.44284
  77                   -0.03252  -2.19855
  78                   -0.02655  -1.95426
  79                   -0.02077  -1.70997
  80                   -0.01536  -1.46568
  81                   -0.01053  -1.22138
  82                   -0.00647  -0.97709
  83                   -0.00340  -0.73279
  84                   -0.00137  -0.48852
  85                   -0.00030  -0.24428
  86                    0.00000   0.00000
  87                   -0.00023   0.24426
  88                   -0.00082   0.48851
  89                   -0.00162   0.73278
  90                   -0.00254   0.97707
  91                   -0.00351   1.22136
  92                   -0.00448   1.46565
  93                   -0.00543   1.70993
  94                   -0.00634   1.95422
  95                   -0.00718   2.19849
  96                   -0.00797   2.44276
  97                   -0.00869   2.68702
  98                   -0.00935   2.93128
  99                   -0.00995   3.17554
 100                   -0.01049   3.41980
 101                   -0.01098   3.66406
 102                   -0.01143   3.90833
 103                   -0.01184   4.15260
 104                   -0.01221   4.39688
 105                   -0.01255   4.64118
 106                   -0.01286   4.88548
 107                   -0.01315   5.12979
 108                   -0.01341   5.37410
 109                   -0.01366   5.61842
 110                   -0.01388   5.86274
 111                   -0.01409   6.10706
 112                   -0.01429   6.35138
 113                   -0.01447   6.59570
 114                   -0.01464   6.84002
 115                   -0.01480   7.08434
 116                   -0.01495   7.32866
 117                   -0.01510   7.57298
 118                   -0.01523   7.81730
 119                   -0.01536   8.06162
 120                   -0.01549   8.30594
 121                   -0.01560   8.55027
 122                   -0.01572   8.79459
 123                   -0.01583   9.03891
 124                   -0.01593   9.28323
 125                   -0.01604   9.52756
 126                   -0.01614   9.77188
 127                   -0.01623  10.01620
 128                   -0.01632  10.26052
 129                   -0.01641  10.50485
 130                   -0.01650  10.74917
 131                   -0.01658  10.99349
 132                   -0.01666  11.23782
 133                   -0.01673  11.48214
 134                   -0.01681  11.72646
 135                   -0.01688  11.97078
 136                   -0.01694  12.21510
 137                   -0.01700  12.45942
 138                   -0.01706  12.70374
 139                   -0.01712  12.94806
 140                   -0.01717  13.19237
 141                   -0.01722  13.43669
 142                   -0.01727  13.68100
 143                   -0.01731  13.92531
 144                   -0.01735  14.16962
 145                   -0.01739  14.41393
 --------------------------------------------------------------------------
 
 Total number of points:                  144
 Total number of gradient calculations:   145
 Total number of Hessian calculations:    145
 IRC-IRC-IRC-IRC-IRC-IRC-IRC-IRC-IRC-IRC-IRC-IRC-IRC-IRC-IRC-IRC-IRC-IRC
                          Input orientation:                          
 ---------------------------------------------------------------------
 Center     Atomic      Atomic             Coordinates (Angstroms)
 Number     Number       Type             X           Y           Z
 ---------------------------------------------------------------------
      1          6           0        0.447647    0.744446   -0.558974
      2          6           0       -0.767530    0.669966    0.170535
      3          6           0       -1.669158    1.731519    0.137740
      4          6           0       -1.365128    2.869609   -0.623224
      5          6           0       -0.170096    2.942855   -1.340639
      6          6           0        0.743648    1.879404   -1.310743
      7          6           0        1.328278   -0.454011   -0.458135
      8          6           0       -0.981553   -0.595584    0.928531
      9          1           0       -2.602519    1.679192    0.695200
     10          1           0       -2.069790    3.699947   -0.652698
     11          1           0        0.057798    3.830351   -1.929954
     12          1           0        1.674048    1.941310   -1.872157
     13          1           0        2.309856   -0.201964   -0.005330
     14          1           0       -1.063186   -0.408702    2.019616
     15         16           0        0.413155   -1.623714    0.522437
     16          1           0        1.587863   -0.856179   -1.459444
     17          1           0       -1.947713   -1.072880    0.663076
     18          8           0       -0.025368   -2.714944   -0.319442
     19          8           0        1.154914   -1.925495    1.727207
 ---------------------------------------------------------------------
                    Distance matrix (angstroms):
                    1          2          3          4          5
     1  C    0.000000
     2  C    1.419291   0.000000
     3  C    2.437331   1.393163   0.000000
     4  C    2.794029   2.413629   1.402408   0.000000
     5  C    2.413629   2.794029   2.429017   1.395762   0.000000
     6  C    1.393163   2.437331   2.818085   2.429017   1.402408
     7  C    1.490631   2.459870   3.757157   4.281138   3.816102
     8  C    2.459870   1.490631   2.552168   3.816102   4.281138
     9  H    3.427858   2.158933   1.088422   2.164826   3.414406
    10  H    3.883459   3.399173   2.158705   1.089439   2.157612
    11  H    3.399173   3.883459   3.415088   2.157612   1.089439
    12  H    2.158933   3.427858   3.906497   3.414406   2.164826
    13  H    2.161026   3.203356   4.426214   4.829271   4.221741
    14  H    3.203356   2.161026   2.913624   4.221740   4.829271
    15  S    2.603617   2.603617   3.967570   4.966365   4.966365
    16  H    2.161699   3.245586   4.455936   4.827103   4.187743
    17  H    3.245587   2.161699   2.866745   4.187743   4.827103
    18  O    3.499786   3.499786   4.762573   5.751042   5.751042
    19  O    3.585448   3.585448   4.886260   5.904927   5.904927
                    6          7          8          9         10
     6  C    0.000000
     7  C    2.552168   0.000000
     8  C    3.757157   2.697815   0.000000
     9  H    3.906497   4.618647   2.802959   0.000000
    10  H    3.415088   5.370297   4.704905   2.486781   0.000000
    11  H    2.158705   4.704905   5.370297   4.312332   2.484959
    12  H    1.088422   2.802959   4.618647   4.994903   4.312332
    13  H    2.913624   1.109980   3.443894   5.306685   5.901295
    14  H    4.426214   3.443893   1.109979   2.912545   5.003549
    15  S    3.967570   1.779656   1.779656   4.475860   5.990603
    16  H    2.866746   1.109840   3.517418   5.350691   5.898097
    17  H    4.455937   3.517419   1.109840   2.829081   4.952378
    18  O    4.762573   2.638828   2.638828   5.194193   6.741035
    19  O    4.886260   2.640272   2.640272   5.308211   6.907116
                   11         12         13         14         15
    11  H    0.000000
    12  H    2.486781   0.000000
    13  H    5.003549   2.912545   0.000000
    14  H    5.901295   5.306685   3.939614   0.000000
    15  S    5.990603   4.475860   2.428453   2.428453   0.000000
    16  H    4.952378   2.829082   1.750348   4.396835   2.428353
    17  H    5.898098   5.350692   4.396835   1.750348   2.428353
    18  O    6.741036   5.194193   3.444852   3.444853   1.446322
    19  O    6.907116   5.308211   2.702986   2.702986   1.446634
                   16         17         18         19
    16  H    0.000000
    17  H    4.129449   0.000000
    18  O    2.712402   2.712403   0.000000
    19  O    3.389045   3.389045   2.490997   0.000000
 Symmetry turned off by external request.
 Stoichiometry    C8H8O2S
 Framework group  C1[X(C8H8O2S)]
 Deg. of freedom    51
 Full point group                 C1      NOp   1
 Rotational constants (GHZ):           2.5268083           0.6764020           0.6005447

 **********************************************************************

            Population analysis using the SCF Density.

 **********************************************************************

 Alpha  occ. eigenvalues --   -1.17795  -1.11929  -1.04473  -1.03174  -0.99806
 Alpha  occ. eigenvalues --   -0.91455  -0.89281  -0.79305  -0.76049  -0.72276
 Alpha  occ. eigenvalues --   -0.64533  -0.59837  -0.59740  -0.59364  -0.55613
 Alpha  occ. eigenvalues --   -0.54819  -0.53897  -0.53392  -0.52423  -0.52183
 Alpha  occ. eigenvalues --   -0.48034  -0.47602  -0.45924  -0.43304  -0.42816
 Alpha  occ. eigenvalues --   -0.42112  -0.40655  -0.37281  -0.36099
 Alpha virt. eigenvalues --   -0.00753  -0.00744   0.02406   0.07694   0.09672
 Alpha virt. eigenvalues --    0.10711   0.12238   0.13345   0.13886   0.14559
 Alpha virt. eigenvalues --    0.15940   0.16286   0.16478   0.16966   0.17223
 Alpha virt. eigenvalues --    0.17730   0.18795   0.19789   0.20411   0.20670
 Alpha virt. eigenvalues --    0.20949   0.21155   0.21497   0.32217   0.32726
 Alpha virt. eigenvalues --    0.32956   0.34530   0.36200
          Condensed to atoms (all electrons):
               1          2          3          4          5          6
     1  C    3.957101   0.000000   0.000000   0.000000   0.000000   0.000000
     2  C    0.000000   3.957101   0.000000   0.000000   0.000000   0.000000
     3  C    0.000000   0.000000   4.169533   0.000000   0.000000   0.000000
     4  C    0.000000   0.000000   0.000000   4.137210   0.000000   0.000000
     5  C    0.000000   0.000000   0.000000   0.000000   4.137210   0.000000
     6  C    0.000000   0.000000   0.000000   0.000000   0.000000   4.169533
     7  C    0.000000   0.000000   0.000000   0.000000   0.000000   0.000000
     8  C    0.000000   0.000000   0.000000   0.000000   0.000000   0.000000
     9  H    0.000000   0.000000   0.000000   0.000000   0.000000   0.000000
    10  H    0.000000   0.000000   0.000000   0.000000   0.000000   0.000000
    11  H    0.000000   0.000000   0.000000   0.000000   0.000000   0.000000
    12  H    0.000000   0.000000   0.000000   0.000000   0.000000   0.000000
    13  H    0.000000   0.000000   0.000000   0.000000   0.000000   0.000000
    14  H    0.000000   0.000000   0.000000   0.000000   0.000000   0.000000
    15  S    0.000000   0.000000   0.000000   0.000000   0.000000   0.000000
    16  H    0.000000   0.000000   0.000000   0.000000   0.000000   0.000000
    17  H    0.000000   0.000000   0.000000   0.000000   0.000000   0.000000
    18  O    0.000000   0.000000   0.000000   0.000000   0.000000   0.000000
    19  O    0.000000   0.000000   0.000000   0.000000   0.000000   0.000000
               7          8          9         10         11         12
     1  C    0.000000   0.000000   0.000000   0.000000   0.000000   0.000000
     2  C    0.000000   0.000000   0.000000   0.000000   0.000000   0.000000
     3  C    0.000000   0.000000   0.000000   0.000000   0.000000   0.000000
     4  C    0.000000   0.000000   0.000000   0.000000   0.000000   0.000000
     5  C    0.000000   0.000000   0.000000   0.000000   0.000000   0.000000
     6  C    0.000000   0.000000   0.000000   0.000000   0.000000   0.000000
     7  C    4.796859   0.000000   0.000000   0.000000   0.000000   0.000000
     8  C    0.000000   4.796859   0.000000   0.000000   0.000000   0.000000
     9  H    0.000000   0.000000   0.842482   0.000000   0.000000   0.000000
    10  H    0.000000   0.000000   0.000000   0.848856   0.000000   0.000000
    11  H    0.000000   0.000000   0.000000   0.000000   0.848856   0.000000
    12  H    0.000000   0.000000   0.000000   0.000000   0.000000   0.842482
    13  H    0.000000   0.000000   0.000000   0.000000   0.000000   0.000000
    14  H    0.000000   0.000000   0.000000   0.000000   0.000000   0.000000
    15  S    0.000000   0.000000   0.000000   0.000000   0.000000   0.000000
    16  H    0.000000   0.000000   0.000000   0.000000   0.000000   0.000000
    17  H    0.000000   0.000000   0.000000   0.000000   0.000000   0.000000
    18  O    0.000000   0.000000   0.000000   0.000000   0.000000   0.000000
    19  O    0.000000   0.000000   0.000000   0.000000   0.000000   0.000000
              13         14         15         16         17         18
     1  C    0.000000   0.000000   0.000000   0.000000   0.000000   0.000000
     2  C    0.000000   0.000000   0.000000   0.000000   0.000000   0.000000
     3  C    0.000000   0.000000   0.000000   0.000000   0.000000   0.000000
     4  C    0.000000   0.000000   0.000000   0.000000   0.000000   0.000000
     5  C    0.000000   0.000000   0.000000   0.000000   0.000000   0.000000
     6  C    0.000000   0.000000   0.000000   0.000000   0.000000   0.000000
     7  C    0.000000   0.000000   0.000000   0.000000   0.000000   0.000000
     8  C    0.000000   0.000000   0.000000   0.000000   0.000000   0.000000
     9  H    0.000000   0.000000   0.000000   0.000000   0.000000   0.000000
    10  H    0.000000   0.000000   0.000000   0.000000   0.000000   0.000000
    11  H    0.000000   0.000000   0.000000   0.000000   0.000000   0.000000
    12  H    0.000000   0.000000   0.000000   0.000000   0.000000   0.000000
    13  H    0.772910   0.000000   0.000000   0.000000   0.000000   0.000000
    14  H    0.000000   0.772910   0.000000   0.000000   0.000000   0.000000
    15  S    0.000000   0.000000   3.555890   0.000000   0.000000   0.000000
    16  H    0.000000   0.000000   0.000000   0.773121   0.000000   0.000000
    17  H    0.000000   0.000000   0.000000   0.000000   0.773121   0.000000
    18  O    0.000000   0.000000   0.000000   0.000000   0.000000   6.922957
    19  O    0.000000   0.000000   0.000000   0.000000   0.000000   0.000000
              19
     1  C    0.000000
     2  C    0.000000
     3  C    0.000000
     4  C    0.000000
     5  C    0.000000
     6  C    0.000000
     7  C    0.000000
     8  C    0.000000
     9  H    0.000000
    10  H    0.000000
    11  H    0.000000
    12  H    0.000000
    13  H    0.000000
    14  H    0.000000
    15  S    0.000000
    16  H    0.000000
    17  H    0.000000
    18  O    0.000000
    19  O    6.925008
 Mulliken charges:
               1
     1  C    0.042899
     2  C    0.042899
     3  C   -0.169533
     4  C   -0.137210
     5  C   -0.137210
     6  C   -0.169533
     7  C   -0.796859
     8  C   -0.796859
     9  H    0.157518
    10  H    0.151144
    11  H    0.151144
    12  H    0.157518
    13  H    0.227090
    14  H    0.227090
    15  S    2.444110
    16  H    0.226879
    17  H    0.226879
    18  O   -0.922957
    19  O   -0.925008
 Sum of Mulliken charges =   0.00000
 Mulliken charges with hydrogens summed into heavy atoms:
               1
     1  C    0.042899
     2  C    0.042899
     3  C   -0.012015
     4  C    0.013934
     5  C    0.013934
     6  C   -0.012015
     7  C   -0.342891
     8  C   -0.342891
    15  S    2.444110
    18  O   -0.922957
    19  O   -0.925008
 APT charges:
               1
     1  C    0.042899
     2  C    0.042899
     3  C   -0.169533
     4  C   -0.137210
     5  C   -0.137210
     6  C   -0.169533
     7  C   -0.796859
     8  C   -0.796859
     9  H    0.157518
    10  H    0.151144
    11  H    0.151144
    12  H    0.157518
    13  H    0.227090
    14  H    0.227090
    15  S    2.444110
    16  H    0.226879
    17  H    0.226879
    18  O   -0.922957
    19  O   -0.925008
 Sum of APT charges =   0.00000
 APT charges with hydrogens summed into heavy atoms:
               1
     1  C    0.042899
     2  C    0.042899
     3  C   -0.012015
     4  C    0.013934
     5  C    0.013934
     6  C   -0.012015
     7  C   -0.342891
     8  C   -0.342891
    15  S    2.444110
    18  O   -0.922957
    19  O   -0.925008
 Charge=              0.0000 electrons
 Dipole moment (field-independent basis, Debye):
    X=             -1.2403    Y=              4.7097    Z=             -1.2800  Tot=              5.0357
 N-N= 3.409836450496D+02 E-N=-5.333542918592D+02  KE=-1.109126399634D+02
  Exact polarizability:       0.000       0.000       0.000       0.000       0.000       0.000
 Approx polarizability:      69.529      -9.375      75.301     -15.021     -15.697      49.938
