 Default is to use a total of   8 processors:
                                8 via shared-memory
                                1 via Linda
 Entering Link 1 = C:\G16W\l1.exe PID=     25588.
  
 Copyright (c) 1988-2019, Gaussian, Inc.  All Rights Reserved.
  
 This is part of the Gaussian(R) 16 program.  It is based on
 the Gaussian(R) 09 system (copyright 2009, Gaussian, Inc.),
 the Gaussian(R) 03 system (copyright 2003, Gaussian, Inc.),
 the Gaussian(R) 98 system (copyright 1998, Gaussian, Inc.),
 the Gaussian(R) 94 system (copyright 1995, Gaussian, Inc.),
 the Gaussian 92(TM) system (copyright 1992, Gaussian, Inc.),
 the Gaussian 90(TM) system (copyright 1990, Gaussian, Inc.),
 the Gaussian 88(TM) system (copyright 1988, Gaussian, Inc.),
 the Gaussian 86(TM) system (copyright 1986, Carnegie Mellon
 University), and the Gaussian 82(TM) system (copyright 1983,
 Carnegie Mellon University). Gaussian is a federally registered
 trademark of Gaussian, Inc.
  
 This software contains proprietary and confidential information,
 including trade secrets, belonging to Gaussian, Inc.
  
 This software is provided under written license and may be
 used, copied, transmitted, or stored only in accord with that
 written license.
  
 The following legend is applicable only to US Government
 contracts under FAR:
  
                    RESTRICTED RIGHTS LEGEND
  
 Use, reproduction and disclosure by the US Government is
 subject to restrictions as set forth in subparagraphs (a)
 and (c) of the Commercial Computer Software - Restricted
 Rights clause in FAR 52.227-19.
  
 Gaussian, Inc.
 340 Quinnipiac St., Bldg. 40, Wallingford CT 06492
  
  
 ---------------------------------------------------------------
 Warning -- This program may not be used in any manner that
 competes with the business of Gaussian, Inc. or will provide
 assistance to any competitor of Gaussian, Inc.  The licensee
 of this program is prohibited from giving any competitor of
 Gaussian, Inc. access to this program.  By using this program,
 the user acknowledges that Gaussian, Inc. is engaged in the
 business of creating and licensing software in the field of
 computational chemistry and represents and warrants to the
 licensee that it is not a competitor of Gaussian, Inc. and that
 it will not use this program in any manner prohibited above.
 ---------------------------------------------------------------
  

 Cite this work as:
 Gaussian 16, Revision C.01,
 M. J. Frisch, G. W. Trucks, H. B. Schlegel, G. E. Scuseria, 
 M. A. Robb, J. R. Cheeseman, G. Scalmani, V. Barone, 
 G. A. Petersson, H. Nakatsuji, X. Li, M. Caricato, A. V. Marenich, 
 J. Bloino, B. G. Janesko, R. Gomperts, B. Mennucci, H. P. Hratchian, 
 J. V. Ortiz, A. F. Izmaylov, J. L. Sonnenberg, D. Williams-Young, 
 F. Ding, F. Lipparini, F. Egidi, J. Goings, B. Peng, A. Petrone, 
 T. Henderson, D. Ranasinghe, V. G. Zakrzewski, J. Gao, N. Rega, 
 G. Zheng, W. Liang, M. Hada, M. Ehara, K. Toyota, R. Fukuda, 
 J. Hasegawa, M. Ishida, T. Nakajima, Y. Honda, O. Kitao, H. Nakai, 
 T. Vreven, K. Throssell, J. A. Montgomery, Jr., J. E. Peralta, 
 F. Ogliaro, M. J. Bearpark, J. J. Heyd, E. N. Brothers, K. N. Kudin, 
 V. N. Staroverov, T. A. Keith, R. Kobayashi, J. Normand, 
 K. Raghavachari, A. P. Rendell, J. C. Burant, S. S. Iyengar, 
 J. Tomasi, M. Cossi, J. M. Millam, M. Klene, C. Adamo, R. Cammi, 
 J. W. Ochterski, R. L. Martin, K. Morokuma, O. Farkas, 
 J. B. Foresman, and D. J. Fox, Gaussian, Inc., Wallingford CT, 2019.
 
 ******************************************
 Gaussian 16:  EM64W-G16RevC.01 30-May-2019
                15-Nov-2025 
 ******************************************
 %chk=C:\Users\al6323\OneDrive - Imperial College London\Desktop\TSR20251115\Exer
 cise 3\cheletropic reaction\TS_Berny_IRC_product.chk
 Default route: MaxDisk=10GB
 --------------------------------------------------------------
 # opt=tight freq rpm6 nosymm geom=connectivity scf=(tight,xqc)
 --------------------------------------------------------------
 1/7=10,18=20,19=15,26=1,38=1,57=2/1,3;
 2/9=110,12=2,15=1,17=6,18=5,40=1/2;
 3/5=2,25=1,41=3900000,71=1,116=1/1,2,3;
 4/35=1/1;
 5/5=2,8=3,13=1,32=2,35=1,38=5/2,8;
 6/7=2,8=2,9=2,10=2,28=1/1;
 7/30=1/1,2,3,16;
 1/7=10,18=20,19=15,26=1/3(2);
 2/9=110,15=1/2;
 99//99;
 2/9=110,15=1/2;
 3/5=2,25=1,41=3900000,71=1,116=1,135=20/1,2,3;
 4/5=5,16=3,35=1/1;
 5/5=2,8=3,13=1,32=2,35=1,38=5/2,8;
 7/30=1/1,2,3,16;
 1/7=10,18=20,19=15,26=1/3(-5);
 2/9=110,15=1/2;
 6/7=2,8=2,9=2,10=2,19=2,28=1/1;
 99/9=1/99;
 -------------------
 Title Card Required
 -------------------
 Symbolic Z-matrix:
 Charge =  0 Multiplicity = 1
 C                     0.44765   0.74445  -0.55897 
 C                    -0.76753   0.66997   0.17054 
 C                    -1.66916   1.73152   0.13774 
 C                    -1.36513   2.86961  -0.62322 
 C                    -0.1701    2.94286  -1.34064 
 C                     0.74365   1.8794   -1.31074 
 C                     1.32828  -0.45401  -0.45813 
 C                    -0.98155  -0.59558   0.92853 
 H                    -2.60252   1.67919   0.6952 
 H                    -2.06979   3.69995  -0.6527 
 H                     0.0578    3.83035  -1.92995 
 H                     1.67405   1.94131  -1.87216 
 H                     2.30986  -0.20196  -0.00533 
 H                    -1.06319  -0.4087    2.01962 
 S                     0.41316  -1.62371   0.52244 
 H                     1.58786  -0.85618  -1.45944 
 H                    -1.94771  -1.07288   0.66308 
 O                    -0.02537  -2.71494  -0.31944 
 O                     1.15491  -1.92549   1.72721 
 

 GradGradGradGradGradGradGradGradGradGradGradGradGradGradGradGradGradGrad
 Berny optimization.
 Initialization pass.
                           ----------------------------
                           !    Initial Parameters    !
                           ! (Angstroms and Degrees)  !
 --------------------------                            --------------------------
 ! Name  Definition              Value          Derivative Info.                !
 --------------------------------------------------------------------------------
 ! R1    R(1,2)                  1.4193         estimate D2E/DX2                !
 ! R2    R(1,6)                  1.3932         estimate D2E/DX2                !
 ! R3    R(1,7)                  1.4906         estimate D2E/DX2                !
 ! R4    R(2,3)                  1.3932         estimate D2E/DX2                !
 ! R5    R(2,8)                  1.4906         estimate D2E/DX2                !
 ! R6    R(3,4)                  1.4024         estimate D2E/DX2                !
 ! R7    R(3,9)                  1.0884         estimate D2E/DX2                !
 ! R8    R(4,5)                  1.3958         estimate D2E/DX2                !
 ! R9    R(4,10)                 1.0894         estimate D2E/DX2                !
 ! R10   R(5,6)                  1.4024         estimate D2E/DX2                !
 ! R11   R(5,11)                 1.0894         estimate D2E/DX2                !
 ! R12   R(6,12)                 1.0884         estimate D2E/DX2                !
 ! R13   R(7,13)                 1.11           estimate D2E/DX2                !
 ! R14   R(7,15)                 1.7797         estimate D2E/DX2                !
 ! R15   R(7,16)                 1.1098         estimate D2E/DX2                !
 ! R16   R(8,14)                 1.11           estimate D2E/DX2                !
 ! R17   R(8,15)                 1.7797         estimate D2E/DX2                !
 ! R18   R(8,17)                 1.1098         estimate D2E/DX2                !
 ! R19   R(15,18)                1.4463         estimate D2E/DX2                !
 ! R20   R(15,19)                1.4466         estimate D2E/DX2                !
 ! A1    A(2,1,6)              120.1338         estimate D2E/DX2                !
 ! A2    A(2,1,7)              115.3948         estimate D2E/DX2                !
 ! A3    A(6,1,7)              124.4695         estimate D2E/DX2                !
 ! A4    A(1,2,3)              120.1338         estimate D2E/DX2                !
 ! A5    A(1,2,8)              115.3948         estimate D2E/DX2                !
 ! A6    A(3,2,8)              124.4695         estimate D2E/DX2                !
 ! A7    A(2,3,4)              119.3952         estimate D2E/DX2                !
 ! A8    A(2,3,9)              120.4171         estimate D2E/DX2                !
 ! A9    A(4,3,9)              120.1876         estimate D2E/DX2                !
 ! A10   A(3,4,5)              120.4709         estimate D2E/DX2                !
 ! A11   A(3,4,10)             119.5365         estimate D2E/DX2                !
 ! A12   A(5,4,10)             119.9926         estimate D2E/DX2                !
 ! A13   A(4,5,6)              120.4709         estimate D2E/DX2                !
 ! A14   A(4,5,11)             119.9926         estimate D2E/DX2                !
 ! A15   A(6,5,11)             119.5365         estimate D2E/DX2                !
 ! A16   A(1,6,5)              119.3952         estimate D2E/DX2                !
 ! A17   A(1,6,12)             120.417          estimate D2E/DX2                !
 ! A18   A(5,6,12)             120.1876         estimate D2E/DX2                !
 ! A19   A(1,7,13)             111.5595         estimate D2E/DX2                !
 ! A20   A(1,7,15)             105.1842         estimate D2E/DX2                !
 ! A21   A(1,7,16)             111.6223         estimate D2E/DX2                !
 ! A22   A(13,7,15)            112.2845         estimate D2E/DX2                !
 ! A23   A(13,7,16)            104.0929         estimate D2E/DX2                !
 ! A24   A(15,7,16)            112.2847         estimate D2E/DX2                !
 ! A25   A(2,8,14)             111.5595         estimate D2E/DX2                !
 ! A26   A(2,8,15)             105.1842         estimate D2E/DX2                !
 ! A27   A(2,8,17)             111.6223         estimate D2E/DX2                !
 ! A28   A(14,8,15)            112.2845         estimate D2E/DX2                !
 ! A29   A(14,8,17)            104.0929         estimate D2E/DX2                !
 ! A30   A(15,8,17)            112.2848         estimate D2E/DX2                !
 ! A31   A(7,15,8)              98.5693         estimate D2E/DX2                !
 ! A32   A(7,15,18)            109.3346         estimate D2E/DX2                !
 ! A33   A(7,15,19)            109.4096         estimate D2E/DX2                !
 ! A34   A(8,15,18)            109.3346         estimate D2E/DX2                !
 ! A35   A(8,15,19)            109.4096         estimate D2E/DX2                !
 ! A36   A(18,15,19)           118.8708         estimate D2E/DX2                !
 ! D1    D(6,1,2,3)              0.0001         estimate D2E/DX2                !
 ! D2    D(6,1,2,8)            179.5182         estimate D2E/DX2                !
 ! D3    D(7,1,2,3)           -179.5181         estimate D2E/DX2                !
 ! D4    D(7,1,2,8)              0.0            estimate D2E/DX2                !
 ! D5    D(2,1,6,5)             -0.1123         estimate D2E/DX2                !
 ! D6    D(2,1,6,12)          -179.9827         estimate D2E/DX2                !
 ! D7    D(7,1,6,5)            179.3597         estimate D2E/DX2                !
 ! D8    D(7,1,6,12)            -0.5107         estimate D2E/DX2                !
 ! D9    D(2,1,7,13)          -118.5695         estimate D2E/DX2                !
 ! D10   D(2,1,7,15)             3.4167         estimate D2E/DX2                !
 ! D11   D(2,1,7,16)           125.4387         estimate D2E/DX2                !
 ! D12   D(6,1,7,13)            61.936          estimate D2E/DX2                !
 ! D13   D(6,1,7,15)          -176.0778         estimate D2E/DX2                !
 ! D14   D(6,1,7,16)           -54.0558         estimate D2E/DX2                !
 ! D15   D(1,2,3,4)              0.1123         estimate D2E/DX2                !
 ! D16   D(1,2,3,9)            179.9826         estimate D2E/DX2                !
 ! D17   D(8,2,3,4)           -179.3597         estimate D2E/DX2                !
 ! D18   D(8,2,3,9)              0.5107         estimate D2E/DX2                !
 ! D19   D(1,2,8,14)           118.5694         estimate D2E/DX2                !
 ! D20   D(1,2,8,15)            -3.4167         estimate D2E/DX2                !
 ! D21   D(1,2,8,17)          -125.4388         estimate D2E/DX2                !
 ! D22   D(3,2,8,14)           -61.9361         estimate D2E/DX2                !
 ! D23   D(3,2,8,15)           176.0778         estimate D2E/DX2                !
 ! D24   D(3,2,8,17)            54.0557         estimate D2E/DX2                !
 ! D25   D(2,3,4,5)             -0.1127         estimate D2E/DX2                !
 ! D26   D(2,3,4,10)           179.8329         estimate D2E/DX2                !
 ! D27   D(9,3,4,5)           -179.9834         estimate D2E/DX2                !
 ! D28   D(9,3,4,10)            -0.0378         estimate D2E/DX2                !
 ! D29   D(3,4,5,6)              0.0            estimate D2E/DX2                !
 ! D30   D(3,4,5,11)           179.9454         estimate D2E/DX2                !
 ! D31   D(10,4,5,6)          -179.9453         estimate D2E/DX2                !
 ! D32   D(10,4,5,11)            0.0            estimate D2E/DX2                !
 ! D33   D(4,5,6,1)              0.1127         estimate D2E/DX2                !
 ! D34   D(4,5,6,12)           179.9833         estimate D2E/DX2                !
 ! D35   D(11,5,6,1)          -179.8329         estimate D2E/DX2                !
 ! D36   D(11,5,6,12)            0.0377         estimate D2E/DX2                !
 ! D37   D(1,7,15,8)            -4.7344         estimate D2E/DX2                !
 ! D38   D(1,7,15,18)          109.3265         estimate D2E/DX2                !
 ! D39   D(1,7,15,19)         -118.9025         estimate D2E/DX2                !
 ! D40   D(13,7,15,8)          116.7803         estimate D2E/DX2                !
 ! D41   D(13,7,15,18)        -129.1588         estimate D2E/DX2                !
 ! D42   D(13,7,15,19)           2.6122         estimate D2E/DX2                !
 ! D43   D(16,7,15,8)         -126.3259         estimate D2E/DX2                !
 ! D44   D(16,7,15,18)         -12.265          estimate D2E/DX2                !
 ! D45   D(16,7,15,19)         119.5061         estimate D2E/DX2                !
 ! D46   D(2,8,15,7)             4.7344         estimate D2E/DX2                !
 ! D47   D(2,8,15,18)         -109.3265         estimate D2E/DX2                !
 ! D48   D(2,8,15,19)          118.9025         estimate D2E/DX2                !
 ! D49   D(14,8,15,7)         -116.7803         estimate D2E/DX2                !
 ! D50   D(14,8,15,18)         129.1589         estimate D2E/DX2                !
 ! D51   D(14,8,15,19)          -2.6122         estimate D2E/DX2                !
 ! D52   D(17,8,15,7)          126.3259         estimate D2E/DX2                !
 ! D53   D(17,8,15,18)          12.265          estimate D2E/DX2                !
 ! D54   D(17,8,15,19)        -119.506          estimate D2E/DX2                !
 --------------------------------------------------------------------------------
 Trust Radius=3.00D-01 FncErr=1.00D-07 GrdErr=1.00D-07 EigMax=2.50D+02 EigMin=1.00D-04
 Number of steps in this run=    114 maximum allowed number of steps=    114.
 GradGradGradGradGradGradGradGradGradGradGradGradGradGradGradGradGradGrad

                          Input orientation:                          
 ---------------------------------------------------------------------
 Center     Atomic      Atomic             Coordinates (Angstroms)
 Number     Number       Type             X           Y           Z
 ---------------------------------------------------------------------
      1          6           0        0.447647    0.744446   -0.558974
      2          6           0       -0.767530    0.669966    0.170536
      3          6           0       -1.669158    1.731519    0.137740
      4          6           0       -1.365129    2.869609   -0.623224
      5          6           0       -0.170096    2.942855   -1.340639
      6          6           0        0.743648    1.879405   -1.310743
      7          6           0        1.328278   -0.454011   -0.458135
      8          6           0       -0.981553   -0.595584    0.928531
      9          1           0       -2.602519    1.679192    0.695200
     10          1           0       -2.069790    3.699947   -0.652698
     11          1           0        0.057798    3.830351   -1.929954
     12          1           0        1.674048    1.941310   -1.872157
     13          1           0        2.309856   -0.201964   -0.005330
     14          1           0       -1.063187   -0.408702    2.019616
     15         16           0        0.413156   -1.623714    0.522437
     16          1           0        1.587863   -0.856179   -1.459444
     17          1           0       -1.947713   -1.072880    0.663076
     18          8           0       -0.025368   -2.714945   -0.319442
     19          8           0        1.154914   -1.925495    1.727207
 ---------------------------------------------------------------------
                    Distance matrix (angstroms):
                    1          2          3          4          5
     1  C    0.000000
     2  C    1.419291   0.000000
     3  C    2.437332   1.393163   0.000000
     4  C    2.794029   2.413630   1.402408   0.000000
     5  C    2.413630   2.794029   2.429017   1.395762   0.000000
     6  C    1.393163   2.437332   2.818085   2.429017   1.402408
     7  C    1.490631   2.459871   3.757157   4.281138   3.816102
     8  C    2.459871   1.490631   2.552168   3.816102   4.281138
     9  H    3.427858   2.158933   1.088422   2.164826   3.414406
    10  H    3.883460   3.399173   2.158705   1.089439   2.157612
    11  H    3.399173   3.883460   3.415089   2.157612   1.089439
    12  H    2.158933   3.427858   3.906498   3.414406   2.164826
    13  H    2.161027   3.203357   4.426215   4.829271   4.221741
    14  H    3.203356   2.161026   2.913624   4.221741   4.829271
    15  S    2.603617   2.603617   3.967570   4.966365   4.966365
    16  H    2.161699   3.245586   4.455936   4.827103   4.187744
    17  H    3.245587   2.161699   2.866746   4.187744   4.827104
    18  O    3.499786   3.499786   4.762573   5.751042   5.751042
    19  O    3.585448   3.585448   4.886261   5.904927   5.904927
                    6          7          8          9         10
     6  C    0.000000
     7  C    2.552168   0.000000
     8  C    3.757158   2.697815   0.000000
     9  H    3.906498   4.618647   2.802959   0.000000
    10  H    3.415089   5.370297   4.704905   2.486781   0.000000
    11  H    2.158705   4.704905   5.370297   4.312332   2.484959
    12  H    1.088422   2.802959   4.618647   4.994903   4.312332
    13  H    2.913624   1.109980   3.443894   5.306686   5.901296
    14  H    4.426214   3.443894   1.109980   2.912546   5.003550
    15  S    3.967570   1.779656   1.779656   4.475860   5.990603
    16  H    2.866746   1.109840   3.517419   5.350692   5.898098
    17  H    4.455937   3.517419   1.109840   2.829082   4.952378
    18  O    4.762574   2.638828   2.638829   5.194193   6.741035
    19  O    4.886260   2.640273   2.640273   5.308212   6.907117
                   11         12         13         14         15
    11  H    0.000000
    12  H    2.486782   0.000000
    13  H    5.003550   2.912545   0.000000
    14  H    5.901295   5.306685   3.939614   0.000000
    15  S    5.990603   4.475860   2.428453   2.428453   0.000000
    16  H    4.952378   2.829082   1.750349   4.396835   2.428353
    17  H    5.898099   5.350692   4.396835   1.750348   2.428353
    18  O    6.741036   5.194194   3.444853   3.444853   1.446322
    19  O    6.907117   5.308211   2.702986   2.702986   1.446634
                   16         17         18         19
    16  H    0.000000
    17  H    4.129450   0.000000
    18  O    2.712403   2.712403   0.000000
    19  O    3.389045   3.389045   2.490998   0.000000
 Symmetry turned off by external request.
 Stoichiometry    C8H8O2S
 Framework group  C1[X(C8H8O2S)]
 Deg. of freedom    51
 Full point group                 C1      NOp   1
 Rotational constants (GHZ):           2.5268080           0.6764019           0.6005446
 Standard basis: VSTO-6G (5D, 7F)
    57 basis functions,   348 primitive gaussians,    58 cartesian basis functions
    29 alpha electrons       29 beta electrons
       nuclear repulsion energy       340.9836283688 Hartrees.
 Integral buffers will be    131072 words long.
 Regular integral format.
 Two-electron integral symmetry is turned off.
 Do NDO integrals.
 One-electron integrals computed using PRISM.
 NBasis=    57 RedAO= F EigKep=  0.00D+00  NBF=    57
 NBsUse=    57 1.00D-04 EigRej=  0.00D+00 NBFU=    57
 Nonelectrostatic core Hamiltonian diagonalized for initial guess.
 Keep J ints in memory in canonical form, NReq=1859402.
 Overlap will be assumed to be unity.
 Requested convergence on RMS density matrix=1.00D-08 within  32 cycles.
 Requested convergence on MAX density matrix=1.00D-06.
 Requested convergence on             energy=1.00D-06.
 No special actions if energy rises.
 SCF Done:  E(RPM6) = -0.101546459477     A.U. after   19 cycles
            NFock= 18  Conv=0.98D-08     -V/T= 0.9991
 QCSCF skips out because SCF is already converged.

 **********************************************************************

            Population analysis using the SCF Density.

 **********************************************************************

 Alpha  occ. eigenvalues --   -1.17795  -1.11929  -1.04473  -1.03174  -0.99806
 Alpha  occ. eigenvalues --   -0.91455  -0.89281  -0.79305  -0.76049  -0.72276
 Alpha  occ. eigenvalues --   -0.64533  -0.59837  -0.59740  -0.59364  -0.55613
 Alpha  occ. eigenvalues --   -0.54819  -0.53897  -0.53392  -0.52423  -0.52183
 Alpha  occ. eigenvalues --   -0.48034  -0.47602  -0.45924  -0.43304  -0.42816
 Alpha  occ. eigenvalues --   -0.42112  -0.40655  -0.37281  -0.36099
 Alpha virt. eigenvalues --   -0.00753  -0.00744   0.02406   0.07694   0.09672
 Alpha virt. eigenvalues --    0.10711   0.12238   0.13345   0.13886   0.14559
 Alpha virt. eigenvalues --    0.15940   0.16286   0.16478   0.16966   0.17223
 Alpha virt. eigenvalues --    0.17730   0.18795   0.19789   0.20411   0.20670
 Alpha virt. eigenvalues --    0.20949   0.21155   0.21497   0.32217   0.32726
 Alpha virt. eigenvalues --    0.32956   0.34530   0.36200
          Condensed to atoms (all electrons):
               1          2          3          4          5          6
     1  C    3.957101   0.000000   0.000000   0.000000   0.000000   0.000000
     2  C    0.000000   3.957101   0.000000   0.000000   0.000000   0.000000
     3  C    0.000000   0.000000   4.169533   0.000000   0.000000   0.000000
     4  C    0.000000   0.000000   0.000000   4.137210   0.000000   0.000000
     5  C    0.000000   0.000000   0.000000   0.000000   4.137210   0.000000
     6  C    0.000000   0.000000   0.000000   0.000000   0.000000   4.169533
     7  C    0.000000   0.000000   0.000000   0.000000   0.000000   0.000000
     8  C    0.000000   0.000000   0.000000   0.000000   0.000000   0.000000
     9  H    0.000000   0.000000   0.000000   0.000000   0.000000   0.000000
    10  H    0.000000   0.000000   0.000000   0.000000   0.000000   0.000000
    11  H    0.000000   0.000000   0.000000   0.000000   0.000000   0.000000
    12  H    0.000000   0.000000   0.000000   0.000000   0.000000   0.000000
    13  H    0.000000   0.000000   0.000000   0.000000   0.000000   0.000000
    14  H    0.000000   0.000000   0.000000   0.000000   0.000000   0.000000
    15  S    0.000000   0.000000   0.000000   0.000000   0.000000   0.000000
    16  H    0.000000   0.000000   0.000000   0.000000   0.000000   0.000000
    17  H    0.000000   0.000000   0.000000   0.000000   0.000000   0.000000
    18  O    0.000000   0.000000   0.000000   0.000000   0.000000   0.000000
    19  O    0.000000   0.000000   0.000000   0.000000   0.000000   0.000000
               7          8          9         10         11         12
     1  C    0.000000   0.000000   0.000000   0.000000   0.000000   0.000000
     2  C    0.000000   0.000000   0.000000   0.000000   0.000000   0.000000
     3  C    0.000000   0.000000   0.000000   0.000000   0.000000   0.000000
     4  C    0.000000   0.000000   0.000000   0.000000   0.000000   0.000000
     5  C    0.000000   0.000000   0.000000   0.000000   0.000000   0.000000
     6  C    0.000000   0.000000   0.000000   0.000000   0.000000   0.000000
     7  C    4.796859   0.000000   0.000000   0.000000   0.000000   0.000000
     8  C    0.000000   4.796859   0.000000   0.000000   0.000000   0.000000
     9  H    0.000000   0.000000   0.842482   0.000000   0.000000   0.000000
    10  H    0.000000   0.000000   0.000000   0.848856   0.000000   0.000000
    11  H    0.000000   0.000000   0.000000   0.000000   0.848856   0.000000
    12  H    0.000000   0.000000   0.000000   0.000000   0.000000   0.842482
    13  H    0.000000   0.000000   0.000000   0.000000   0.000000   0.000000
    14  H    0.000000   0.000000   0.000000   0.000000   0.000000   0.000000
    15  S    0.000000   0.000000   0.000000   0.000000   0.000000   0.000000
    16  H    0.000000   0.000000   0.000000   0.000000   0.000000   0.000000
    17  H    0.000000   0.000000   0.000000   0.000000   0.000000   0.000000
    18  O    0.000000   0.000000   0.000000   0.000000   0.000000   0.000000
    19  O    0.000000   0.000000   0.000000   0.000000   0.000000   0.000000
              13         14         15         16         17         18
     1  C    0.000000   0.000000   0.000000   0.000000   0.000000   0.000000
     2  C    0.000000   0.000000   0.000000   0.000000   0.000000   0.000000
     3  C    0.000000   0.000000   0.000000   0.000000   0.000000   0.000000
     4  C    0.000000   0.000000   0.000000   0.000000   0.000000   0.000000
     5  C    0.000000   0.000000   0.000000   0.000000   0.000000   0.000000
     6  C    0.000000   0.000000   0.000000   0.000000   0.000000   0.000000
     7  C    0.000000   0.000000   0.000000   0.000000   0.000000   0.000000
     8  C    0.000000   0.000000   0.000000   0.000000   0.000000   0.000000
     9  H    0.000000   0.000000   0.000000   0.000000   0.000000   0.000000
    10  H    0.000000   0.000000   0.000000   0.000000   0.000000   0.000000
    11  H    0.000000   0.000000   0.000000   0.000000   0.000000   0.000000
    12  H    0.000000   0.000000   0.000000   0.000000   0.000000   0.000000
    13  H    0.772910   0.000000   0.000000   0.000000   0.000000   0.000000
    14  H    0.000000   0.772910   0.000000   0.000000   0.000000   0.000000
    15  S    0.000000   0.000000   3.555891   0.000000   0.000000   0.000000
    16  H    0.000000   0.000000   0.000000   0.773121   0.000000   0.000000
    17  H    0.000000   0.000000   0.000000   0.000000   0.773121   0.000000
    18  O    0.000000   0.000000   0.000000   0.000000   0.000000   6.922957
    19  O    0.000000   0.000000   0.000000   0.000000   0.000000   0.000000
              19
     1  C    0.000000
     2  C    0.000000
     3  C    0.000000
     4  C    0.000000
     5  C    0.000000
     6  C    0.000000
     7  C    0.000000
     8  C    0.000000
     9  H    0.000000
    10  H    0.000000
    11  H    0.000000
    12  H    0.000000
    13  H    0.000000
    14  H    0.000000
    15  S    0.000000
    16  H    0.000000
    17  H    0.000000
    18  O    0.000000
    19  O    6.925008
 Mulliken charges:
               1
     1  C    0.042899
     2  C    0.042899
     3  C   -0.169533
     4  C   -0.137210
     5  C   -0.137210
     6  C   -0.169533
     7  C   -0.796859
     8  C   -0.796859
     9  H    0.157518
    10  H    0.151144
    11  H    0.151144
    12  H    0.157518
    13  H    0.227090
    14  H    0.227090
    15  S    2.444109
    16  H    0.226879
    17  H    0.226879
    18  O   -0.922957
    19  O   -0.925008
 Sum of Mulliken charges =   0.00000
 Mulliken charges with hydrogens summed into heavy atoms:
               1
     1  C    0.042899
     2  C    0.042899
     3  C   -0.012015
     4  C    0.013934
     5  C    0.013934
     6  C   -0.012015
     7  C   -0.342891
     8  C   -0.342891
    15  S    2.444109
    18  O   -0.922957
    19  O   -0.925008
 Charge=              0.0000 electrons
 Dipole moment (field-independent basis, Debye):
    X=             -1.2403    Y=              4.7097    Z=             -1.2800  Tot=              5.0357
 N-N= 3.409836283688D+02 E-N=-5.333542617435D+02  KE=-1.109126388590D+02
 Calling FoFJK, ICntrl=      2127 FMM=F ISym2X=0 I1Cent= 0 IOpClX= 0 NMat=1 NMatS=1 NMatT=0.
 -------------------------------------------------------------------
 Center     Atomic                   Forces (Hartrees/Bohr)
 Number     Number              X              Y              Z
 -------------------------------------------------------------------
      1        6          -0.000029645   -0.000017256   -0.000074568
      2        6          -0.000050345   -0.000018524   -0.000062287
      3        6           0.000023934    0.000015642    0.000005143
      4        6           0.000053344    0.000043466    0.000109478
      5        6           0.000067532    0.000044331    0.000100929
      6        6          -0.000008020    0.000013659    0.000024304
      7        6          -0.000066099   -0.000069827   -0.000136539
      8        6          -0.000083077   -0.000070885   -0.000126360
      9        1           0.000002164    0.000001269    0.000000393
     10        1           0.000013698   -0.000002385    0.000016226
     11        1           0.000008124   -0.000002744    0.000019561
     12        1          -0.000000779    0.000001098    0.000002158
     13        1          -0.000025801   -0.000014572   -0.000032076
     14        1          -0.000014889   -0.000013911   -0.000038591
     15       16           0.000003305   -0.000057619   -0.000000398
     16        1          -0.000024636    0.000001019    0.000012135
     17        1           0.000022078    0.000003896   -0.000015922
     18        8           0.000135656   -0.000128134    0.000212912
     19        8          -0.000026543    0.000271478   -0.000016497
 -------------------------------------------------------------------
 Cartesian Forces:  Max     0.000271478 RMS     0.000068672

 GradGradGradGradGradGradGradGradGradGradGradGradGradGradGradGradGradGrad
 Berny optimization.
 FormGI is forming the generalized inverse of G from B-inverse, IUseBI=4.
 Internal  Forces:  Max     0.000241963 RMS     0.000078798
 Search for a local minimum.
 Step number   1 out of a maximum of  114
 All quantities printed in internal units (Hartrees-Bohrs-Radians)
 Mixed Optimization -- En-DIIS/RFO-DIIS
 Second derivative matrix not updated -- first step.
 ITU=  0
     Eigenvalues ---    0.00703   0.01195   0.01426   0.01624   0.02083
     Eigenvalues ---    0.02100   0.02104   0.02118   0.02135   0.02139
     Eigenvalues ---    0.03178   0.04775   0.05814   0.05989   0.06476
     Eigenvalues ---    0.08094   0.08567   0.08606   0.09184   0.09351
     Eigenvalues ---    0.10596   0.13482   0.16000   0.16000   0.16000
     Eigenvalues ---    0.16000   0.22000   0.22541   0.23230   0.24039
     Eigenvalues ---    0.24646   0.27370   0.27455   0.32130   0.32602
     Eigenvalues ---    0.32602   0.32617   0.32617   0.33069   0.34878
     Eigenvalues ---    0.34878   0.34996   0.34996   0.38719   0.41783
     Eigenvalues ---    0.44102   0.45681   0.46113   0.46654   0.97458
     Eigenvalues ---    0.97601
 RFO step:  Lambda=-4.20211304D-05 EMin= 7.03076797D-03
 Linear search not attempted -- first point.
 Iteration  1 RMS(Cart)=  0.01026822 RMS(Int)=  0.00005632
 Iteration  2 RMS(Cart)=  0.00007251 RMS(Int)=  0.00000641
 Iteration  3 RMS(Cart)=  0.00000000 RMS(Int)=  0.00000641
 Variable       Old X    -DE/DX   Delta X   Delta X   Delta X     New X
                                 (Linear)    (Quad)   (Total)
    R1        2.68207   0.00000   0.00000  -0.00002  -0.00001   2.68206
    R2        2.63270  -0.00002   0.00000  -0.00003  -0.00003   2.63267
    R3        2.81688   0.00000   0.00000  -0.00001  -0.00001   2.81688
    R4        2.63270  -0.00002   0.00000  -0.00003  -0.00003   2.63267
    R5        2.81688   0.00000   0.00000  -0.00001  -0.00001   2.81688
    R6        2.65017  -0.00002   0.00000  -0.00006  -0.00006   2.65011
    R7        2.05682   0.00000   0.00000   0.00000   0.00000   2.05682
    R8        2.63761   0.00000   0.00000  -0.00002  -0.00002   2.63758
    R9        2.05874  -0.00001   0.00000  -0.00003  -0.00003   2.05871
   R10        2.65017  -0.00002   0.00000  -0.00006  -0.00006   2.65011
   R11        2.05874  -0.00001   0.00000  -0.00003  -0.00003   2.05871
   R12        2.05682   0.00000   0.00000   0.00000   0.00000   2.05682
   R13        2.09756  -0.00004   0.00000  -0.00012  -0.00012   2.09744
   R14        3.36306  -0.00002   0.00000  -0.00003  -0.00004   3.36302
   R15        2.09729  -0.00002   0.00000  -0.00005  -0.00005   2.09724
   R16        2.09756  -0.00004   0.00000  -0.00012  -0.00012   2.09744
   R17        3.36306  -0.00002   0.00000  -0.00003  -0.00004   3.36302
   R18        2.09729  -0.00002   0.00000  -0.00005  -0.00005   2.09724
   R19        2.73315  -0.00007   0.00000  -0.00007  -0.00007   2.73308
   R20        2.73374  -0.00008   0.00000  -0.00009  -0.00009   2.73366
    A1        2.09673   0.00000   0.00000  -0.00002  -0.00002   2.09671
    A2        2.01402  -0.00001   0.00000   0.00013   0.00011   2.01413
    A3        2.17240   0.00001   0.00000  -0.00007  -0.00006   2.17234
    A4        2.09673   0.00000   0.00000  -0.00002  -0.00002   2.09671
    A5        2.01402  -0.00001   0.00000   0.00013   0.00011   2.01413
    A6        2.17240   0.00001   0.00000  -0.00007  -0.00006   2.17234
    A7        2.08384   0.00000   0.00000   0.00003   0.00003   2.08387
    A8        2.10167   0.00000   0.00000  -0.00001  -0.00001   2.10166
    A9        2.09767   0.00000   0.00000  -0.00001  -0.00002   2.09765
   A10        2.10261   0.00000   0.00000  -0.00001  -0.00001   2.10260
   A11        2.08630   0.00000   0.00000  -0.00001  -0.00001   2.08629
   A12        2.09427   0.00000   0.00000   0.00002   0.00002   2.09429
   A13        2.10261   0.00000   0.00000  -0.00001  -0.00001   2.10260
   A14        2.09427   0.00000   0.00000   0.00002   0.00002   2.09429
   A15        2.08631   0.00000   0.00000  -0.00001  -0.00001   2.08629
   A16        2.08384   0.00000   0.00000   0.00003   0.00003   2.08387
   A17        2.10167   0.00000   0.00000  -0.00001  -0.00001   2.10166
   A18        2.09767   0.00000   0.00000  -0.00001  -0.00002   2.09765
   A19        1.94708  -0.00012   0.00000  -0.00209  -0.00208   1.94500
   A20        1.83581   0.00003   0.00000   0.00050   0.00048   1.83629
   A21        1.94818   0.00010   0.00000   0.00187   0.00188   1.95005
   A22        1.95973  -0.00007   0.00000  -0.00186  -0.00186   1.95788
   A23        1.81676   0.00001   0.00000  -0.00008  -0.00008   1.81668
   A24        1.95974   0.00005   0.00000   0.00162   0.00163   1.96137
   A25        1.94708  -0.00012   0.00000  -0.00209  -0.00208   1.94500
   A26        1.83581   0.00003   0.00000   0.00050   0.00048   1.83629
   A27        1.94818   0.00010   0.00000   0.00187   0.00188   1.95006
   A28        1.95973  -0.00007   0.00000  -0.00186  -0.00186   1.95788
   A29        1.81676   0.00001   0.00000  -0.00008  -0.00008   1.81668
   A30        1.95974   0.00005   0.00000   0.00162   0.00163   1.96137
   A31        1.72036  -0.00002   0.00000   0.00030   0.00027   1.72063
   A32        1.90825   0.00008   0.00000   0.00101   0.00102   1.90927
   A33        1.90956  -0.00006   0.00000  -0.00107  -0.00106   1.90849
   A34        1.90825   0.00008   0.00000   0.00101   0.00102   1.90927
   A35        1.90956  -0.00006   0.00000  -0.00107  -0.00106   1.90849
   A36        2.07469  -0.00001   0.00000  -0.00010  -0.00011   2.07458
    D1        0.00000   0.00000   0.00000   0.00000   0.00000   0.00000
    D2        3.13318   0.00010   0.00000   0.00503   0.00503   3.13821
    D3       -3.13318  -0.00010   0.00000  -0.00503  -0.00503  -3.13821
    D4        0.00000   0.00000   0.00000   0.00000   0.00000   0.00000
    D5       -0.00196   0.00007   0.00000   0.00295   0.00295   0.00099
    D6       -3.14129  -0.00003   0.00000  -0.00147  -0.00147   3.14042
    D7        3.13042   0.00018   0.00000   0.00845   0.00845   3.13887
    D8       -0.00891   0.00008   0.00000   0.00404   0.00404  -0.00488
    D9       -2.06943   0.00003   0.00000  -0.00666  -0.00666  -2.07608
   D10        0.05963  -0.00010   0.00000  -0.00979  -0.00979   0.04985
   D11        2.18932   0.00004   0.00000  -0.00643  -0.00643   2.18289
   D12        1.08099  -0.00007   0.00000  -0.01193  -0.01193   1.06906
   D13       -3.07314  -0.00021   0.00000  -0.01506  -0.01506  -3.08820
   D14       -0.94345  -0.00007   0.00000  -0.01170  -0.01170  -0.95515
   D15        0.00196  -0.00007   0.00000  -0.00295  -0.00295  -0.00099
   D16        3.14129   0.00003   0.00000   0.00147   0.00147  -3.14042
   D17       -3.13042  -0.00018   0.00000  -0.00845  -0.00845  -3.13887
   D18        0.00891  -0.00008   0.00000  -0.00404  -0.00404   0.00488
   D19        2.06943  -0.00003   0.00000   0.00666   0.00666   2.07608
   D20       -0.05963   0.00010   0.00000   0.00979   0.00979  -0.04985
   D21       -2.18932  -0.00004   0.00000   0.00643   0.00643  -2.18289
   D22       -1.08099   0.00007   0.00000   0.01193   0.01193  -1.06906
   D23        3.07314   0.00021   0.00000   0.01506   0.01506   3.08820
   D24        0.94345   0.00007   0.00000   0.01170   0.01170   0.95515
   D25       -0.00197   0.00007   0.00000   0.00296   0.00296   0.00099
   D26        3.13868   0.00006   0.00000   0.00298   0.00298  -3.14153
   D27       -3.14130  -0.00003   0.00000  -0.00145  -0.00145   3.14043
   D28       -0.00066  -0.00003   0.00000  -0.00143  -0.00143  -0.00209
   D29        0.00000   0.00000   0.00000   0.00000   0.00000   0.00000
   D30        3.14064   0.00000   0.00000   0.00002   0.00002   3.14066
   D31       -3.14064   0.00000   0.00000  -0.00002  -0.00002  -3.14066
   D32        0.00000   0.00000   0.00000   0.00000   0.00000   0.00000
   D33        0.00197  -0.00007   0.00000  -0.00296  -0.00296  -0.00099
   D34        3.14130   0.00003   0.00000   0.00145   0.00145  -3.14043
   D35       -3.13868  -0.00006   0.00000  -0.00298  -0.00298   3.14153
   D36        0.00066   0.00003   0.00000   0.00143   0.00143   0.00209
   D37       -0.08263   0.00014   0.00000   0.01357   0.01357  -0.06906
   D38        1.90811   0.00024   0.00000   0.01515   0.01515   1.92325
   D39       -2.07524   0.00024   0.00000   0.01496   0.01497  -2.06027
   D40        2.03820  -0.00003   0.00000   0.01028   0.01028   2.04848
   D41       -2.25425   0.00007   0.00000   0.01187   0.01186  -2.24239
   D42        0.04559   0.00007   0.00000   0.01168   0.01168   0.05727
   D43       -2.20480  -0.00003   0.00000   0.01002   0.01002  -2.19478
   D44       -0.21406   0.00007   0.00000   0.01161   0.01161  -0.20246
   D45        2.08577   0.00007   0.00000   0.01142   0.01143   2.09720
   D46        0.08263  -0.00014   0.00000  -0.01357  -0.01357   0.06906
   D47       -1.90811  -0.00024   0.00000  -0.01515  -0.01515  -1.92325
   D48        2.07524  -0.00024   0.00000  -0.01496  -0.01497   2.06027
   D49       -2.03820   0.00003   0.00000  -0.01028  -0.01028  -2.04848
   D50        2.25425  -0.00007   0.00000  -0.01187  -0.01186   2.24239
   D51       -0.04559  -0.00007   0.00000  -0.01168  -0.01168  -0.05727
   D52        2.20480   0.00003   0.00000  -0.01002  -0.01002   2.19478
   D53        0.21407  -0.00007   0.00000  -0.01161  -0.01161   0.20246
   D54       -2.08577  -0.00007   0.00000  -0.01142  -0.01143  -2.09720
         Item               Value     Threshold  Converged?
 Maximum Force            0.000242     0.000015     NO 
 RMS     Force            0.000079     0.000010     NO 
 Maximum Displacement     0.047673     0.000060     NO 
 RMS     Displacement     0.010268     0.000040     NO 
 Predicted change in Energy=-2.111760D-05
 GradGradGradGradGradGradGradGradGradGradGradGradGradGradGradGradGradGrad

                          Input orientation:                          
 ---------------------------------------------------------------------
 Center     Atomic      Atomic             Coordinates (Angstroms)
 Number     Number       Type             X           Y           Z
 ---------------------------------------------------------------------
      1          6           0        0.443599    0.741066   -0.566054
      2          6           0       -0.771572    0.666586    0.163452
      3          6           0       -1.670426    1.730606    0.135472
      4          6           0       -1.362030    2.872615   -0.617768
      5          6           0       -0.167009    2.945860   -1.335177
      6          6           0        0.742324    1.878488   -1.312978
      7          6           0        1.324324   -0.457328   -0.465333
      8          6           0       -0.985747   -0.598916    0.921476
      9          1           0       -2.603149    1.678855    0.694047
     10          1           0       -2.063267    3.706018   -0.641200
     11          1           0        0.064330    3.836422   -1.918463
     12          1           0        1.673357    1.940969   -1.873274
     13          1           0        2.307706   -0.201722   -0.018636
     14          1           0       -1.073918   -0.408987    2.011461
     15         16           0        0.416977   -1.621394    0.529040
     16          1           0        1.579675   -0.864815   -1.465549
     17          1           0       -1.948495   -1.081062    0.652524
     18          8           0       -0.011620   -2.727865   -0.297861
     19          8           0        1.160102   -1.900267    1.738425
 ---------------------------------------------------------------------
                    Distance matrix (angstroms):
                    1          2          3          4          5
     1  C    0.000000
     2  C    1.419284   0.000000
     3  C    2.437300   1.393148   0.000000
     4  C    2.794007   2.413610   1.402378   0.000000
     5  C    2.413610   2.794007   2.428974   1.395750   0.000000
     6  C    1.393148   2.437300   2.818020   2.428974   1.402378
     7  C    1.490627   2.459945   3.757199   4.281151   3.816070
     8  C    2.459945   1.490627   2.552109   3.816070   4.281151
     9  H    3.427824   2.158911   1.088420   2.164786   3.414357
    10  H    3.883422   3.399130   2.158656   1.089422   2.157600
    11  H    3.399131   3.883422   3.415039   2.157600   1.089422
    12  H    2.158911   3.427824   3.906430   3.414357   2.164786
    13  H    2.159493   3.204538   4.425288   4.824673   4.214827
    14  H    3.204538   2.159492   2.907407   4.214827   4.824673
    15  S    2.604065   2.604065   3.968381   4.967510   4.967510
    16  H    2.163010   3.244564   4.456751   4.831226   4.193942
    17  H    3.244564   2.163010   2.872306   4.193942   4.831227
    18  O    3.508936   3.508936   4.776754   5.769864   5.769864
    19  O    3.577798   3.577798   4.874894   5.890094   5.890094
                    6          7          8          9         10
     6  C    0.000000
     7  C    2.552109   0.000000
     8  C    3.757199   2.698095   0.000000
     9  H    3.906430   4.618710   2.802847   0.000000
    10  H    3.415039   5.370302   4.704834   2.486715   0.000000
    11  H    2.158656   4.704834   5.370302   4.312280   2.484970
    12  H    1.088420   2.802847   4.618710   4.994832   4.312280
    13  H    2.907407   1.109916   3.447957   5.306692   5.896051
    14  H    4.425287   3.447957   1.109916   2.903998   4.994866
    15  S    3.968381   1.779636   1.779636   4.476609   5.991860
    16  H    2.872306   1.109812   3.514254   5.350713   5.902803
    17  H    4.456752   3.514255   1.109812   2.836801   4.960144
    18  O    4.776754   2.639722   2.639722   5.207598   6.761803
    19  O    4.874894   2.639241   2.639240   5.297443   6.890802
                   11         12         13         14         15
    11  H    0.000000
    12  H    2.486715   0.000000
    13  H    4.994866   2.903998   0.000000
    14  H    5.896051   5.306692   3.949637   0.000000
    15  S    5.991860   4.476609   2.426988   2.426988   0.000000
    16  H    4.960144   2.836801   1.750223   4.397606   2.429540
    17  H    5.902804   5.350713   4.397606   1.750223   2.429540
    18  O    6.761804   5.207599   3.440732   3.440732   1.446285
    19  O    6.890802   5.297442   2.699873   2.699873   1.446588
                   16         17         18         19
    16  H    0.000000
    17  H    4.120798   0.000000
    18  O    2.714161   2.714162   0.000000
    19  O    3.393178   3.393178   2.490846   0.000000
 Symmetry turned off by external request.
 Stoichiometry    C8H8O2S
 Framework group  C1[X(C8H8O2S)]
 Deg. of freedom    51
 Full point group                 C1      NOp   1
 Rotational constants (GHZ):           2.5272489           0.6761572           0.6003124
 Standard basis: VSTO-6G (5D, 7F)
    57 basis functions,   348 primitive gaussians,    58 cartesian basis functions
    29 alpha electrons       29 beta electrons
       nuclear repulsion energy       340.9720078904 Hartrees.
 Integral buffers will be    131072 words long.
 Regular integral format.
 Two-electron integral symmetry is turned off.
 Do NDO integrals.
 One-electron integrals computed using PRISM.
 NBasis=    57 RedAO= F EigKep=  0.00D+00  NBF=    57
 NBsUse=    57 1.00D-04 EigRej=  0.00D+00 NBFU=    57
 Initial guess from the checkpoint file:  "C:\Users\al6323\OneDrive - Imperial College London\Desktop\TSR20251115\Exercise 3\cheletropic reaction\TS_Berny_IRC_product.chk"
 B after Tr=     0.002848    0.001703    0.004917
         Rot=    0.999999    0.001204    0.000074   -0.000723 Ang=   0.16 deg.
 Keep J ints in memory in canonical form, NReq=1859402.
 Overlap will be assumed to be unity.
 Requested convergence on RMS density matrix=1.00D-08 within  32 cycles.
 Requested convergence on MAX density matrix=1.00D-06.
 Requested convergence on             energy=1.00D-06.
 No special actions if energy rises.
 SCF Done:  E(RPM6) = -0.101579717807     A.U. after   11 cycles
            NFock= 10  Conv=0.57D-08     -V/T= 0.9991
 QCSCF skips out because SCF is already converged.
 Calling FoFJK, ICntrl=      2127 FMM=F ISym2X=0 I1Cent= 0 IOpClX= 0 NMat=1 NMatS=1 NMatT=0.
 -------------------------------------------------------------------
 Center     Atomic                   Forces (Hartrees/Bohr)
 Number     Number              X              Y              Z
 -------------------------------------------------------------------
      1        6          -0.000059428   -0.000073881   -0.000093006
      2        6          -0.000047526   -0.000073127   -0.000100145
      3        6           0.000121852    0.000113016    0.000229532
      4        6          -0.000028092   -0.000008970   -0.000031397
      5        6          -0.000013735   -0.000008079   -0.000039990
      6        6           0.000135078    0.000113823    0.000221585
      7        6          -0.000060921   -0.000024328   -0.000045256
      8        6          -0.000009251   -0.000021166   -0.000076283
      9        1          -0.000045495   -0.000039424   -0.000073700
     10        1           0.000005230    0.000003980    0.000008712
     11        1           0.000004872    0.000003951    0.000008909
     12        1          -0.000040121   -0.000039090   -0.000076927
     13        1           0.000171511   -0.000036289   -0.000054605
     14        1          -0.000124742   -0.000054449    0.000123249
     15       16          -0.000090901   -0.000081167   -0.000159701
     16        1          -0.000167259    0.000039410    0.000060088
     17        1           0.000127306    0.000057464   -0.000116758
     18        8           0.000097210   -0.000045542    0.000157279
     19        8           0.000024413    0.000173866    0.000058412
 -------------------------------------------------------------------
 Cartesian Forces:  Max     0.000229532 RMS     0.000091307

 GradGradGradGradGradGradGradGradGradGradGradGradGradGradGradGradGradGrad
 Berny optimization.
 Using GEDIIS/GDIIS optimizer.
 FormGI is forming the generalized inverse of G from B-inverse, IUseBI=4.
 Internal  Forces:  Max     0.000121628 RMS     0.000045890
 Search for a local minimum.
 Step number   2 out of a maximum of  114
 All quantities printed in internal units (Hartrees-Bohrs-Radians)
 Mixed Optimization -- En-DIIS/RFO-DIIS
 Swapping is turned off.
 Update second derivatives using D2CorX and points    1    2
 DE= -3.33D-05 DEPred=-2.11D-05 R= 1.57D+00
 TightC=F SS=  1.41D+00  RLast= 6.69D-02 DXNew= 5.0454D-01 2.0060D-01
 Trust test= 1.57D+00 RLast= 6.69D-02 DXMaxT set to 3.00D-01
 ITU=  1  0
     Eigenvalues ---    0.00211   0.01195   0.01442   0.01624   0.02077
     Eigenvalues ---    0.02100   0.02104   0.02120   0.02135   0.02483
     Eigenvalues ---    0.03177   0.05609   0.05814   0.05989   0.06457
     Eigenvalues ---    0.08098   0.08571   0.08610   0.09187   0.09349
     Eigenvalues ---    0.10591   0.13487   0.16000   0.16000   0.16000
     Eigenvalues ---    0.16000   0.22000   0.22541   0.23237   0.24046
     Eigenvalues ---    0.24651   0.27375   0.27456   0.32135   0.32602
     Eigenvalues ---    0.32608   0.32617   0.32991   0.33102   0.34878
     Eigenvalues ---    0.34878   0.34996   0.34996   0.38722   0.41783
     Eigenvalues ---    0.44107   0.45685   0.46113   0.46664   0.97507
     Eigenvalues ---    0.97598
 En-DIIS/RFO-DIIS/Sim-DIIS IScMMF=       -3 using points:     2    1
 RFO step:  Lambda=-6.84276561D-05.
 DidBck=F Rises=F RFO-DIIS coefs:    3.00000   -2.00000
 Iteration  1 RMS(Cart)=  0.02364129 RMS(Int)=  0.00029793
 Iteration  2 RMS(Cart)=  0.00036780 RMS(Int)=  0.00006105
 Iteration  3 RMS(Cart)=  0.00000002 RMS(Int)=  0.00006105
 Variable       Old X    -DE/DX   Delta X   Delta X   Delta X     New X
                                 (Linear)    (Quad)   (Total)
    R1        2.68206  -0.00001  -0.00002  -0.00006  -0.00006   2.68200
    R2        2.63267   0.00001  -0.00006   0.00009   0.00002   2.63269
    R3        2.81688  -0.00002  -0.00002  -0.00015  -0.00014   2.81673
    R4        2.63267   0.00001  -0.00006   0.00009   0.00002   2.63269
    R5        2.81688  -0.00002  -0.00002  -0.00015  -0.00014   2.81673
    R6        2.65011   0.00001  -0.00011   0.00011   0.00000   2.65011
    R7        2.05682   0.00000  -0.00001   0.00003   0.00002   2.05683
    R8        2.63758   0.00001  -0.00005   0.00007   0.00005   2.63763
    R9        2.05871   0.00000  -0.00006   0.00003  -0.00003   2.05868
   R10        2.65011   0.00001  -0.00011   0.00010   0.00000   2.65011
   R11        2.05871   0.00000  -0.00006   0.00003  -0.00003   2.05868
   R12        2.05682   0.00000  -0.00001   0.00003   0.00002   2.05683
   R13        2.09744   0.00012  -0.00024   0.00103   0.00079   2.09823
   R14        3.36302  -0.00002  -0.00008  -0.00010  -0.00021   3.36281
   R15        2.09724  -0.00011  -0.00010  -0.00072  -0.00083   2.09641
   R16        2.09744   0.00012  -0.00024   0.00103   0.00079   2.09823
   R17        3.36302  -0.00002  -0.00008  -0.00010  -0.00021   3.36281
   R18        2.09724  -0.00011  -0.00010  -0.00072  -0.00083   2.09641
   R19        2.73308  -0.00008  -0.00014  -0.00012  -0.00027   2.73282
   R20        2.73366   0.00003  -0.00017   0.00017  -0.00001   2.73365
    A1        2.09671   0.00000  -0.00004   0.00001  -0.00001   2.09670
    A2        2.01413   0.00000   0.00022   0.00014   0.00019   2.01432
    A3        2.17234   0.00000  -0.00012  -0.00016  -0.00018   2.17216
    A4        2.09671   0.00000  -0.00004   0.00001  -0.00001   2.09670
    A5        2.01413   0.00000   0.00022   0.00014   0.00019   2.01432
    A6        2.17234   0.00000  -0.00012  -0.00016  -0.00018   2.17216
    A7        2.08387   0.00000   0.00006   0.00002   0.00005   2.08391
    A8        2.10166   0.00000  -0.00002  -0.00002  -0.00004   2.10163
    A9        2.09765   0.00000  -0.00003   0.00002  -0.00001   2.09764
   A10        2.10260   0.00000  -0.00002  -0.00002  -0.00003   2.10257
   A11        2.08629   0.00000  -0.00002   0.00003   0.00000   2.08629
   A12        2.09429   0.00000   0.00004  -0.00001   0.00003   2.09432
   A13        2.10260   0.00000  -0.00002  -0.00002  -0.00003   2.10257
   A14        2.09429   0.00000   0.00004  -0.00001   0.00003   2.09432
   A15        2.08629   0.00000  -0.00003   0.00003   0.00000   2.08629
   A16        2.08387   0.00000   0.00006   0.00002   0.00005   2.08391
   A17        2.10166   0.00000  -0.00002  -0.00002  -0.00004   2.10163
   A18        2.09765   0.00000  -0.00003   0.00002  -0.00001   2.09764
   A19        1.94500  -0.00002  -0.00416   0.00201  -0.00207   1.94293
   A20        1.83629   0.00001   0.00095   0.00014   0.00084   1.83713
   A21        1.95005   0.00001   0.00376  -0.00214   0.00169   1.95175
   A22        1.95788   0.00000  -0.00372   0.00163  -0.00202   1.95586
   A23        1.81668   0.00000  -0.00016   0.00008  -0.00011   1.81657
   A24        1.96137  -0.00001   0.00326  -0.00172   0.00161   1.96297
   A25        1.94500  -0.00002  -0.00416   0.00201  -0.00207   1.94293
   A26        1.83629   0.00001   0.00095   0.00014   0.00084   1.83713
   A27        1.95006   0.00001   0.00376  -0.00214   0.00169   1.95175
   A28        1.95788   0.00000  -0.00372   0.00163  -0.00202   1.95586
   A29        1.81668   0.00000  -0.00016   0.00008  -0.00011   1.81657
   A30        1.96137  -0.00001   0.00326  -0.00172   0.00161   1.96297
   A31        1.72063   0.00000   0.00054   0.00030   0.00050   1.72113
   A32        1.90927   0.00003   0.00204  -0.00026   0.00186   1.91113
   A33        1.90849  -0.00003  -0.00213   0.00006  -0.00199   1.90650
   A34        1.90927   0.00003   0.00204  -0.00026   0.00186   1.91113
   A35        1.90849  -0.00003  -0.00213   0.00006  -0.00199   1.90650
   A36        2.07458   0.00000  -0.00022   0.00013  -0.00014   2.07443
    D1        0.00000   0.00000   0.00000   0.00000   0.00000   0.00000
    D2        3.13821   0.00002   0.01005  -0.00381   0.00624  -3.13874
    D3       -3.13821  -0.00002  -0.01005   0.00381  -0.00624   3.13873
    D4        0.00000   0.00000   0.00000   0.00000   0.00000   0.00000
    D5        0.00099  -0.00002   0.00589  -0.00535   0.00054   0.00153
    D6        3.14042   0.00004  -0.00294   0.00589   0.00295  -3.13982
    D7        3.13887   0.00001   0.01691  -0.00953   0.00738  -3.13694
    D8       -0.00488   0.00006   0.00807   0.00171   0.00978   0.00491
    D9       -2.07608  -0.00004  -0.01331  -0.00964  -0.02293  -2.09901
   D10        0.04985  -0.00004  -0.01957  -0.00643  -0.02601   0.02383
   D11        2.18289  -0.00004  -0.01285  -0.00966  -0.02254   2.16035
   D12        1.06906  -0.00007  -0.02386  -0.00564  -0.02947   1.03958
   D13       -3.08820  -0.00007  -0.03012  -0.00244  -0.03256  -3.12076
   D14       -0.95515  -0.00007  -0.02340  -0.00566  -0.02908  -0.98424
   D15       -0.00099   0.00002  -0.00589   0.00535  -0.00054  -0.00153
   D16       -3.14042  -0.00004   0.00294  -0.00589  -0.00294   3.13982
   D17       -3.13887  -0.00001  -0.01691   0.00953  -0.00738   3.13694
   D18        0.00488  -0.00006  -0.00807  -0.00171  -0.00978  -0.00491
   D19        2.07608   0.00004   0.01331   0.00964   0.02293   2.09901
   D20       -0.04985   0.00004   0.01957   0.00643   0.02601  -0.02383
   D21       -2.18289   0.00004   0.01285   0.00966   0.02254  -2.16035
   D22       -1.06906   0.00007   0.02386   0.00564   0.02948  -1.03958
   D23        3.08820   0.00007   0.03012   0.00243   0.03256   3.12076
   D24        0.95515   0.00007   0.02340   0.00566   0.02908   0.98424
   D25        0.00099  -0.00002   0.00591  -0.00537   0.00054   0.00153
   D26       -3.14153  -0.00002   0.00595  -0.00537   0.00058  -3.14095
   D27        3.14043   0.00004  -0.00290   0.00584   0.00294  -3.13981
   D28       -0.00209   0.00004  -0.00286   0.00584   0.00298   0.00089
   D29        0.00000   0.00000   0.00000   0.00000   0.00000   0.00000
   D30        3.14066   0.00000   0.00004   0.00000   0.00004   3.14070
   D31       -3.14066   0.00000  -0.00004   0.00000  -0.00004  -3.14070
   D32        0.00000   0.00000   0.00000   0.00000   0.00000   0.00000
   D33       -0.00099   0.00002  -0.00591   0.00537  -0.00054  -0.00153
   D34       -3.14043  -0.00004   0.00290  -0.00584  -0.00294   3.13981
   D35        3.14153   0.00002  -0.00595   0.00537  -0.00058   3.14095
   D36        0.00209  -0.00004   0.00286  -0.00584  -0.00298  -0.00089
   D37       -0.06906   0.00006   0.02713   0.00891   0.03605  -0.03302
   D38        1.92325   0.00009   0.03029   0.00868   0.03895   1.96220
   D39       -2.06027   0.00010   0.02994   0.00869   0.03866  -2.02161
   D40        2.04848   0.00005   0.02056   0.01238   0.03292   2.08140
   D41       -2.24239   0.00008   0.02372   0.01215   0.03582  -2.20657
   D42        0.05727   0.00009   0.02336   0.01216   0.03553   0.09280
   D43       -2.19478   0.00005   0.02005   0.01242   0.03249  -2.16229
   D44       -0.20246   0.00008   0.02321   0.01219   0.03539  -0.16706
   D45        2.09720   0.00009   0.02285   0.01220   0.03511   2.13231
   D46        0.06906  -0.00006  -0.02713  -0.00891  -0.03605   0.03302
   D47       -1.92325  -0.00009  -0.03029  -0.00868  -0.03895  -1.96220
   D48        2.06027  -0.00010  -0.02994  -0.00869  -0.03866   2.02161
   D49       -2.04848  -0.00005  -0.02056  -0.01238  -0.03292  -2.08140
   D50        2.24239  -0.00008  -0.02372  -0.01215  -0.03582   2.20657
   D51       -0.05727  -0.00009  -0.02336  -0.01216  -0.03553  -0.09280
   D52        2.19478  -0.00005  -0.02005  -0.01243  -0.03249   2.16229
   D53        0.20246  -0.00008  -0.02321  -0.01219  -0.03540   0.16706
   D54       -2.09720  -0.00009  -0.02285  -0.01220  -0.03511  -2.13231
         Item               Value     Threshold  Converged?
 Maximum Force            0.000122     0.000015     NO 
 RMS     Force            0.000046     0.000010     NO 
 Maximum Displacement     0.110865     0.000060     NO 
 RMS     Displacement     0.023638     0.000040     NO 
 Predicted change in Energy=-3.529970D-05
 GradGradGradGradGradGradGradGradGradGradGradGradGradGradGradGradGradGrad

                          Input orientation:                          
 ---------------------------------------------------------------------
 Center     Atomic      Atomic             Coordinates (Angstroms)
 Number     Number       Type             X           Y           Z
 ---------------------------------------------------------------------
      1          6           0        0.437700    0.736159   -0.576351
      2          6           0       -0.777444    0.661681    0.153138
      3          6           0       -1.670142    1.731111    0.135941
      4          6           0       -1.355314    2.878797   -0.605926
      5          6           0       -0.160272    2.952043   -1.323348
      6          6           0        0.742559    1.878990   -1.312480
      7          6           0        1.315512   -0.464727   -0.481170
      8          6           0       -0.994915   -0.606337    0.905852
      9          1           0       -2.604095    1.678264    0.692373
     10          1           0       -2.051495    3.716608   -0.620443
     11          1           0        0.076161    3.847015   -1.897743
     12          1           0        1.672376    1.940376   -1.874929
     13          1           0        2.307818   -0.206705   -0.055033
     14          1           0       -1.105559   -0.415917    1.994125
     15         16           0        0.426057   -1.614902    0.544827
     16          1           0        1.551706   -0.883286   -1.481036
     17          1           0       -1.947428   -1.097754    0.619605
     18          8           0        0.020328   -2.754691   -0.247383
     19          8           0        1.171610   -1.841600    1.763584
 ---------------------------------------------------------------------
                    Distance matrix (angstroms):
                    1          2          3          4          5
     1  C    0.000000
     2  C    1.419251   0.000000
     3  C    2.437270   1.393158   0.000000
     4  C    2.794042   2.413653   1.402379   0.000000
     5  C    2.413653   2.794042   2.428973   1.395774   0.000000
     6  C    1.393158   2.437270   2.817964   2.428973   1.402379
     7  C    1.490550   2.460001   3.757215   4.281125   3.815956
     8  C    2.460001   1.490550   2.551932   3.815956   4.281125
     9  H    3.427789   2.158905   1.088429   2.164789   3.414369
    10  H    3.883441   3.399150   2.158645   1.089406   2.157628
    11  H    3.399150   3.883441   3.415040   2.157628   1.089406
    12  H    2.158905   3.427789   3.906382   3.414369   2.164789
    13  H    2.158265   3.211895   4.428970   4.821032   4.204495
    14  H    3.211895   2.158265   2.895053   4.204495   4.821032
    15  S    2.604738   2.604738   3.969514   4.968989   4.968988
    16  H    2.163808   3.237650   4.453088   4.834237   4.203032
    17  H    3.237650   2.163808   2.883278   4.203032   4.834237
    18  O    3.531070   3.531070   4.809059   5.810089   5.810089
    19  O    3.557915   3.557915   4.846549   5.855089   5.855089
                    6          7          8          9         10
     6  C    0.000000
     7  C    2.551932   0.000000
     8  C    3.757215   2.698511   0.000000
     9  H    3.906382   4.618759   2.802576   0.000000
    10  H    3.415040   5.370261   4.704657   2.486705   0.000000
    11  H    2.158644   4.704657   5.370260   4.312303   2.485039
    12  H    1.088429   2.802576   4.618759   4.994792   4.312303
    13  H    2.895053   1.110333   3.462810   5.314002   5.892002
    14  H    4.428970   3.462810   1.110333   2.885439   4.980816
    15  S    3.969514   1.779524   1.779524   4.477559   5.993423
    16  H    2.883278   1.109373   3.501316   5.343774   5.906158
    17  H    4.453087   3.501316   1.109373   2.853556   4.972588
    18  O    4.809059   2.641230   2.641230   5.236586   6.805097
    19  O    4.846550   2.637311   2.637311   5.271896   6.853150
                   11         12         13         14         15
    11  H    0.000000
    12  H    2.486704   0.000000
    13  H    4.980816   2.885440   0.000000
    14  H    5.892002   5.314002   3.986723   0.000000
    15  S    5.993423   4.477559   2.425670   2.425670   0.000000
    16  H    4.972588   2.853555   1.750129   4.399572   2.430323
    17  H    5.906157   5.343774   4.399572   1.750129   2.430323
    18  O    6.805097   5.236585   3.429555   3.429555   1.446145
    19  O    6.853151   5.271896   2.696520   2.696520   1.446585
                   16         17         18         19
    16  H    0.000000
    17  H    4.086885   0.000000
    18  O    2.714623   2.714623   0.000000
    19  O    3.404467   3.404467   2.490618   0.000000
 Symmetry turned off by external request.
 Stoichiometry    C8H8O2S
 Framework group  C1[X(C8H8O2S)]
 Deg. of freedom    51
 Full point group                 C1      NOp   1
 Rotational constants (GHZ):           2.5277499           0.6758387           0.6000054
 Standard basis: VSTO-6G (5D, 7F)
    57 basis functions,   348 primitive gaussians,    58 cartesian basis functions
    29 alpha electrons       29 beta electrons
       nuclear repulsion energy       340.9570231532 Hartrees.
 Integral buffers will be    131072 words long.
 Regular integral format.
 Two-electron integral symmetry is turned off.
 Do NDO integrals.
 One-electron integrals computed using PRISM.
 NBasis=    57 RedAO= F EigKep=  0.00D+00  NBF=    57
 NBsUse=    57 1.00D-04 EigRej=  0.00D+00 NBFU=    57
 Initial guess from the checkpoint file:  "C:\Users\al6323\OneDrive - Imperial College London\Desktop\TSR20251115\Exercise 3\cheletropic reaction\TS_Berny_IRC_product.chk"
 B after Tr=     0.008050    0.005848    0.014006
         Rot=    0.999995    0.002651    0.000162   -0.001592 Ang=   0.35 deg.
 Keep J ints in memory in canonical form, NReq=1859402.
 Overlap will be assumed to be unity.
 Requested convergence on RMS density matrix=1.00D-08 within  32 cycles.
 Requested convergence on MAX density matrix=1.00D-06.
 Requested convergence on             energy=1.00D-06.
 No special actions if energy rises.
 SCF Done:  E(RPM6) = -0.101623490562     A.U. after   13 cycles
            NFock= 12  Conv=0.64D-08     -V/T= 0.9991
 QCSCF skips out because SCF is already converged.
 Calling FoFJK, ICntrl=      2127 FMM=F ISym2X=0 I1Cent= 0 IOpClX= 0 NMat=1 NMatS=1 NMatT=0.
 -------------------------------------------------------------------
 Center     Atomic                   Forces (Hartrees/Bohr)
 Number     Number              X              Y              Z
 -------------------------------------------------------------------
      1        6          -0.000045769   -0.000034832    0.000001605
      2        6           0.000025938   -0.000030443   -0.000041336
      3        6          -0.000028653    0.000006358   -0.000024377
      4        6          -0.000027995   -0.000040820   -0.000064637
      5        6          -0.000040136   -0.000041563   -0.000057333
      6        6          -0.000008678    0.000007598   -0.000036344
      7        6           0.000130115    0.000113294    0.000240073
      8        6           0.000140467    0.000113948    0.000233891
      9        1           0.000018094    0.000015505    0.000031127
     10        1           0.000006135    0.000012090    0.000012507
     11        1           0.000007050    0.000012161    0.000011964
     12        1           0.000017569    0.000015465    0.000031443
     13        1           0.000171931   -0.000107730   -0.000140823
     14        1          -0.000194412   -0.000130183    0.000079072
     15       16          -0.000017358    0.000054019   -0.000023375
     16        1          -0.000238026    0.000012447   -0.000069159
     17        1           0.000048954    0.000030025   -0.000241440
     18        8          -0.000031025    0.000045075   -0.000047096
     19        8           0.000065797   -0.000052415    0.000104239
 -------------------------------------------------------------------
 Cartesian Forces:  Max     0.000241440 RMS     0.000091139

 GradGradGradGradGradGradGradGradGradGradGradGradGradGradGradGradGradGrad
 Berny optimization.
 Using GEDIIS/GDIIS optimizer.
 FormGI is forming the generalized inverse of G from B-inverse, IUseBI=4.
 Internal  Forces:  Max     0.000164415 RMS     0.000064199
 Search for a local minimum.
 Step number   3 out of a maximum of  114
 All quantities printed in internal units (Hartrees-Bohrs-Radians)
 Mixed Optimization -- En-DIIS/RFO-DIIS
 Swapping is turned off.
 Update second derivatives using D2CorX and points    1    2    3
 DE= -4.38D-05 DEPred=-3.53D-05 R= 1.24D+00
 TightC=F SS=  1.41D+00  RLast= 1.80D-01 DXNew= 5.0454D-01 5.4010D-01
 Trust test= 1.24D+00 RLast= 1.80D-01 DXMaxT set to 5.05D-01
 ITU=  1  1  0
     Eigenvalues ---    0.00135   0.01194   0.01490   0.01624   0.02080
     Eigenvalues ---    0.02100   0.02104   0.02135   0.02163   0.02481
     Eigenvalues ---    0.03175   0.05812   0.05988   0.06304   0.07009
     Eigenvalues ---    0.08105   0.08577   0.08617   0.09194   0.09345
     Eigenvalues ---    0.10831   0.13495   0.16000   0.16000   0.16000
     Eigenvalues ---    0.16000   0.22000   0.22542   0.23263   0.24058
     Eigenvalues ---    0.24653   0.27384   0.27462   0.32143   0.32602
     Eigenvalues ---    0.32617   0.32626   0.32994   0.33102   0.34878
     Eigenvalues ---    0.34879   0.34996   0.34996   0.38724   0.41783
     Eigenvalues ---    0.44109   0.45686   0.46113   0.46665   0.97563
     Eigenvalues ---    0.97595
 En-DIIS/RFO-DIIS/Sim-DIIS IScMMF=       -3 using points:     3    2    1
 RFO step:  Lambda=-1.96196745D-05.
 DidBck=F Rises=F RFO-DIIS coefs:    1.52305   -0.44705   -0.07601
 Iteration  1 RMS(Cart)=  0.01210141 RMS(Int)=  0.00008447
 Iteration  2 RMS(Cart)=  0.00009271 RMS(Int)=  0.00004272
 Iteration  3 RMS(Cart)=  0.00000000 RMS(Int)=  0.00004272
 Variable       Old X    -DE/DX   Delta X   Delta X   Delta X     New X
                                 (Linear)    (Quad)   (Total)
    R1        2.68200  -0.00001  -0.00003   0.00000  -0.00002   2.68197
    R2        2.63269   0.00002   0.00001   0.00003   0.00003   2.63272
    R3        2.81673   0.00001  -0.00008   0.00006   0.00000   2.81673
    R4        2.63269   0.00002   0.00001   0.00003   0.00003   2.63272
    R5        2.81673   0.00001  -0.00008   0.00006   0.00000   2.81673
    R6        2.65011  -0.00001   0.00000  -0.00005  -0.00004   2.65007
    R7        2.05683   0.00000   0.00001  -0.00001   0.00000   2.05683
    R8        2.63763  -0.00001   0.00002  -0.00005  -0.00001   2.63762
    R9        2.05868   0.00001  -0.00002   0.00001  -0.00001   2.05867
   R10        2.65011  -0.00001   0.00000  -0.00005  -0.00004   2.65007
   R11        2.05868   0.00001  -0.00002   0.00001  -0.00001   2.05867
   R12        2.05683   0.00000   0.00001  -0.00001   0.00000   2.05683
   R13        2.09823   0.00007   0.00040  -0.00004   0.00036   2.09859
   R14        3.36281   0.00000  -0.00011   0.00007  -0.00006   3.36275
   R15        2.09641   0.00001  -0.00044   0.00027  -0.00016   2.09625
   R16        2.09823   0.00007   0.00040  -0.00004   0.00036   2.09859
   R17        3.36281   0.00000  -0.00011   0.00007  -0.00006   3.36275
   R18        2.09641   0.00001  -0.00044   0.00027  -0.00016   2.09625
   R19        2.73282   0.00000  -0.00014   0.00005  -0.00009   2.73272
   R20        2.73365   0.00013  -0.00001   0.00012   0.00011   2.73376
    A1        2.09670   0.00000  -0.00001  -0.00002  -0.00001   2.09668
    A2        2.01432   0.00002   0.00011   0.00009   0.00009   2.01441
    A3        2.17216  -0.00001  -0.00010  -0.00006  -0.00008   2.17209
    A4        2.09670   0.00000  -0.00001  -0.00002  -0.00001   2.09668
    A5        2.01432   0.00002   0.00011   0.00009   0.00009   2.01441
    A6        2.17216  -0.00001  -0.00010  -0.00006  -0.00008   2.17209
    A7        2.08391   0.00000   0.00003   0.00001   0.00001   2.08393
    A8        2.10163   0.00000  -0.00002   0.00000  -0.00001   2.10162
    A9        2.09764   0.00000  -0.00001  -0.00001  -0.00001   2.09764
   A10        2.10257   0.00000  -0.00002   0.00001   0.00000   2.10257
   A11        2.08629   0.00000   0.00000   0.00001   0.00001   2.08630
   A12        2.09432   0.00000   0.00002  -0.00002  -0.00001   2.09431
   A13        2.10257   0.00000  -0.00002   0.00001   0.00000   2.10257
   A14        2.09432   0.00000   0.00002  -0.00002  -0.00001   2.09431
   A15        2.08629   0.00000   0.00000   0.00001   0.00001   2.08630
   A16        2.08391   0.00000   0.00003   0.00001   0.00001   2.08393
   A17        2.10163   0.00000  -0.00002   0.00000  -0.00001   2.10162
   A18        2.09764   0.00000  -0.00001  -0.00001  -0.00001   2.09764
   A19        1.94293   0.00013  -0.00124   0.00237   0.00118   1.94411
   A20        1.83713  -0.00003   0.00047  -0.00019   0.00010   1.83723
   A21        1.95175  -0.00011   0.00103  -0.00230  -0.00122   1.95053
   A22        1.95586   0.00007  -0.00120   0.00174   0.00059   1.95645
   A23        1.81657   0.00000  -0.00006   0.00009   0.00000   1.81657
   A24        1.96297  -0.00005   0.00096  -0.00167  -0.00066   1.96232
   A25        1.94293   0.00013  -0.00124   0.00237   0.00118   1.94411
   A26        1.83713  -0.00003   0.00047  -0.00019   0.00010   1.83723
   A27        1.95175  -0.00011   0.00103  -0.00230  -0.00122   1.95053
   A28        1.95586   0.00007  -0.00120   0.00174   0.00059   1.95645
   A29        1.81657   0.00000  -0.00006   0.00009   0.00000   1.81657
   A30        1.96297  -0.00005   0.00096  -0.00167  -0.00066   1.96232
   A31        1.72113   0.00003   0.00028   0.00019   0.00024   1.72137
   A32        1.91113  -0.00009   0.00105  -0.00139  -0.00028   1.91086
   A33        1.90650   0.00006  -0.00112   0.00124   0.00017   1.90668
   A34        1.91113  -0.00009   0.00105  -0.00139  -0.00028   1.91086
   A35        1.90650   0.00006  -0.00112   0.00124   0.00017   1.90668
   A36        2.07443   0.00002  -0.00008   0.00013   0.00001   2.07444
    D1        0.00000   0.00000   0.00000   0.00000   0.00000   0.00000
    D2       -3.13874  -0.00007   0.00365  -0.00383  -0.00018  -3.13892
    D3        3.13873   0.00007  -0.00365   0.00383   0.00018   3.13892
    D4        0.00000   0.00000   0.00000   0.00000   0.00000   0.00000
    D5        0.00153  -0.00001   0.00051   0.00075   0.00125   0.00278
    D6       -3.13982   0.00000   0.00143  -0.00172  -0.00029  -3.14011
    D7       -3.13694  -0.00009   0.00450  -0.00345   0.00105  -3.13588
    D8        0.00491  -0.00008   0.00542  -0.00591  -0.00049   0.00441
    D9       -2.09901  -0.00012  -0.01250  -0.00294  -0.01542  -2.11444
   D10        0.02383   0.00002  -0.01435   0.00038  -0.01398   0.00986
   D11        2.16035  -0.00013  -0.01228  -0.00312  -0.01541   2.14494
   D12        1.03958  -0.00005  -0.01632   0.00107  -0.01523   1.02435
   D13       -3.12076   0.00009  -0.01817   0.00439  -0.01378  -3.13454
   D14       -0.98424  -0.00006  -0.01610   0.00090  -0.01522  -0.99945
   D15       -0.00153   0.00001  -0.00051  -0.00075  -0.00125  -0.00278
   D16        3.13982   0.00000  -0.00143   0.00172   0.00029   3.14011
   D17        3.13694   0.00009  -0.00450   0.00345  -0.00105   3.13588
   D18       -0.00491   0.00008  -0.00542   0.00591   0.00049  -0.00441
   D19        2.09901   0.00012   0.01250   0.00294   0.01542   2.11444
   D20       -0.02383  -0.00002   0.01435  -0.00038   0.01398  -0.00986
   D21       -2.16035   0.00013   0.01228   0.00312   0.01541  -2.14494
   D22       -1.03958   0.00005   0.01632  -0.00108   0.01523  -1.02435
   D23        3.12076  -0.00009   0.01818  -0.00439   0.01378   3.13454
   D24        0.98424   0.00006   0.01610  -0.00090   0.01522   0.99945
   D25        0.00153  -0.00001   0.00051   0.00075   0.00126   0.00279
   D26       -3.14095   0.00000   0.00053   0.00156   0.00209  -3.13887
   D27       -3.13981   0.00000   0.00143  -0.00171  -0.00028  -3.14009
   D28        0.00089   0.00001   0.00145  -0.00090   0.00055   0.00144
   D29        0.00000   0.00000   0.00000   0.00000   0.00000   0.00000
   D30        3.14070   0.00002   0.00002   0.00081   0.00083   3.14153
   D31       -3.14070  -0.00002  -0.00002  -0.00081  -0.00083  -3.14153
   D32        0.00000   0.00000   0.00000   0.00000   0.00000   0.00000
   D33       -0.00153   0.00001  -0.00051  -0.00075  -0.00126  -0.00279
   D34        3.13981   0.00000  -0.00143   0.00171   0.00028   3.14009
   D35        3.14095   0.00000  -0.00053  -0.00156  -0.00209   3.13887
   D36       -0.00089  -0.00001  -0.00145   0.00090  -0.00055  -0.00144
   D37       -0.03302  -0.00003   0.01989  -0.00052   0.01936  -0.01366
   D38        1.96220  -0.00014   0.02152  -0.00243   0.01908   1.98128
   D39       -2.02161  -0.00013   0.02136  -0.00237   0.01901  -2.00261
   D40        2.08140   0.00015   0.01800   0.00322   0.02120   2.10260
   D41       -2.20657   0.00004   0.01964   0.00131   0.02092  -2.18565
   D42        0.09280   0.00005   0.01947   0.00137   0.02085   0.11365
   D43       -2.16229   0.00016   0.01776   0.00339   0.02117  -2.14112
   D44       -0.16706   0.00005   0.01940   0.00149   0.02088  -0.14619
   D45        2.13231   0.00006   0.01923   0.00154   0.02081   2.15312
   D46        0.03302   0.00003  -0.01989   0.00052  -0.01936   0.01366
   D47       -1.96220   0.00014  -0.02152   0.00243  -0.01908  -1.98128
   D48        2.02161   0.00013  -0.02136   0.00237  -0.01901   2.00261
   D49       -2.08140  -0.00015  -0.01800  -0.00322  -0.02120  -2.10260
   D50        2.20657  -0.00004  -0.01964  -0.00131  -0.02092   2.18565
   D51       -0.09280  -0.00005  -0.01947  -0.00137  -0.02085  -0.11365
   D52        2.16229  -0.00016  -0.01776  -0.00339  -0.02117   2.14112
   D53        0.16706  -0.00005  -0.01940  -0.00149  -0.02088   0.14618
   D54       -2.13231  -0.00006  -0.01923  -0.00154  -0.02081  -2.15312
         Item               Value     Threshold  Converged?
 Maximum Force            0.000164     0.000015     NO 
 RMS     Force            0.000064     0.000010     NO 
 Maximum Displacement     0.052992     0.000060     NO 
 RMS     Displacement     0.012101     0.000040     NO 
 Predicted change in Energy=-9.897216D-06
 GradGradGradGradGradGradGradGradGradGradGradGradGradGradGradGradGradGrad

                          Input orientation:                          
 ---------------------------------------------------------------------
 Center     Atomic      Atomic             Coordinates (Angstroms)
 Number     Number       Type             X           Y           Z
 ---------------------------------------------------------------------
      1          6           0        0.436007    0.734730   -0.579303
      2          6           0       -0.779125    0.660252    0.150179
      3          6           0       -1.669934    1.731328    0.136282
      4          6           0       -1.352515    2.881211   -0.601023
      5          6           0       -0.157479    2.954457   -1.318442
      6          6           0        0.742743    1.879205   -1.312125
      7          6           0        1.311688   -0.468017   -0.488098
      8          6           0       -0.998934   -0.609639    0.899042
      9          1           0       -2.603757    1.678607    0.692942
     10          1           0       -2.046305    3.721060   -0.611365
     11          1           0        0.081332    3.851466   -1.888654
     12          1           0        1.672689    1.940717   -1.874346
     13          1           0        2.310549   -0.211462   -0.076126
     14          1           0       -1.124969   -0.422031    1.986323
     15         16           0        0.431219   -1.610685    0.553856
     16          1           0        1.533304   -0.892132   -1.488863
     17          1           0       -1.944946   -1.105319    0.599240
[...]
 51656,0.0173755,0.0282664,0.0213533,0.128741,0.1074647,0.0599807,-0.00
 19022,0.0526661,0.2659353,-0.0839893,0.0017109,-0.0879785,0.1971239,0.
 2597363,0.0502306,-0.0804619,0.0300973,0.101417,0.0122704,-0.0704878,0
 .0006206,0.2016977,0.3699011,0.000161,-0.0024747,-0.0000003,0.2224951,
 0.0178394,0.0439245,0.0484425,0.2268527,0.2316078,0.0462621,-0.0192404
 ,0.0232993,0.2265332,-0.0036133,-0.074986,0.0085014,0.3553613,3.014824
 ,-0.1396617,0.3480928,-0.2233285,4.0169226,-0.1914366,0.3826383,-0.094
 4651,3.3375943,0.2720523,-0.0430064,-0.0125415,-0.0475113,0.215211,0.0
 766491,-0.05476,0.0436201,0.3177535,0.3254706,0.0676902,-0.0201121,0.0
 996696,0.2327774,-0.0061043,0.0299273,-0.0160973,0.2537677,-0.9997045,
 -0.1953927,-0.0849537,0.0127782,-1.643902,-0.0823463,-0.0825011,-0.435
 9737,-1.1156192,-1.1554964,0.1852714,-0.284353,0.0591045,-1.1934463,0.
 0863821,-0.3567007,0.2956603,-1.4208366|Polar=80.0629503,-13.1048411,1
 02.688803,-13.8591891,-19.6063387,60.1551898|HyperPolar=-38.901996,29.
 3440534,-7.8640372,195.5079689,-31.5333321,25.6087181,-4.2677634,-31.6
 465913,49.1094959,-49.8899635|PG=C01 [X(C8H8O2S1)]|NImag=0||0.52523049
 ,-0.08656429,0.64769299,-0.16888479,-0.18954692,0.34397025,-0.21675218
 ,0.04177287,0.06697980,0.54710035,-0.05362285,-0.07729977,0.03714452,-
 0.12751179,0.64259132,0.11329959,-0.01728617,-0.12006821,-0.16148251,-
 0.16370730,0.32720179,-0.06073920,0.00855760,0.03299279,-0.19086375,0.
 17668597,-0.01268105,0.52343373,0.09390431,0.05079719,-0.07612539,0.07
 388837,-0.22530524,0.03677518,-0.10039833,0.57886565,-0.00845049,-0.02
 742969,0.02250579,0.03723450,-0.02188021,-0.07335594,-0.16975471,-0.15
 556650,0.31289729,-0.04902680,-0.03385706,0.04258028,0.07044390,-0.018
 16499,-0.02859794,-0.10005628,0.01830758,0.01140990,0.53501599,-0.0339
 7710,-0.03462683,0.03463982,0.06913884,-0.07889771,0.00122214,-0.08717
 419,-0.23505058,0.13256403,-0.07064810,0.54478033,0.04263952,0.0345718
 6,-0.04432675,-0.07098953,0.05103376,0.02058463,0.06262825,0.07238033,
 -0.13535715,-0.18986994,-0.15520639,0.32582431,0.06947162,0.07095639,-
 0.07131623,-0.08854559,0.04000562,0.02926482,0.00565081,-0.12131568,0.
 05916706,-0.25754766,0.04858871,0.08601773,0.54745909,-0.01634718,-0.0
 7867113,0.04988999,0.04012590,-0.02540936,-0.01211770,-0.03464286,0.03
 731939,0.00461132,-0.05778230,-0.09304020,0.04636842,-0.09393738,0.541
 87864,-0.02892719,0.00007481,0.02133322,0.02920593,-0.01204875,-0.0140
 2755,0.01708164,0.05406535,-0.02989196,0.13766626,-0.01432346,-0.13703
 410,-0.18565778,-0.14051033,0.31628295,-0.10086837,-0.09460440,0.06769
 126,0.00706111,-0.03302469,0.01449727,-0.01255803,0.02593842,-0.006729
 97,-0.06407983,0.00922660,0.03556603,-0.17796092,0.16415020,-0.0149571
 2,0.51626397,0.00819467,-0.24629770,0.08444922,-0.11837133,0.03498300,
 0.05267287,0.02379935,-0.09779085,0.03279757,0.09589990,0.05358349,-0.
 07777008,0.05866916,-0.21688000,0.04052846,-0.08694166,0.58054204,0.01
 777681,0.14310226,-0.14235798,0.05593611,0.00397467,-0.02948287,-0.005
 69094,0.03157683,-0.01436439,-0.00651814,-0.02831677,0.02357220,0.0362
 6127,-0.01965674,-0.07562381,-0.17217766,-0.16405714,0.31839040,-0.120
 20420,0.09490850,-0.01175234,-0.03633402,0.02385806,0.01228192,-0.0005
 5952,-0.00045822,0.00346912,0.00001866,0.00098829,-0.00039911,0.001532
 88,0.00010428,0.00227646,0.00523530,0.00702868,-0.00373346,0.45426202,
 0.08526246,-0.18051749,0.00984817,0.01922718,-0.00920433,-0.00383305,0
 .00138249,0.00241506,0.00052904,0.00063121,-0.00056021,-0.00001018,-0.
 00067804,-0.00086688,0.00353132,0.01700524,-0.03836361,0.01119288,-0.0
 5831144,0.43422453,-0.00706953,0.00434153,-0.05811810,0.01453186,-0.00
 647624,0.00034875,0.00257536,0.00158084,0.00289440,-0.00022677,-0.0002
 1468,0.00039273,0.00265586,0.00308450,0.00259635,-0.00857667,0.0168865
 4,0.00136871,-0.00479762,0.01481905,0.39176511,-0.01608030,-0.01869425
 ,0.02138598,-0.05845057,-0.03036111,0.01383222,0.00572464,0.01609039,-
 0.00841126,-0.00023302,0.00262699,0.00205759,0.00064624,-0.00054323,-0
 .00001409,-0.00046702,0.00121163,0.00260726,-0.01492138,0.00183725,0.0
 1408876,0.40239309,-0.01406245,-0.01392911,0.01745608,-0.02071144,-0.1
 9492265,0.07730718,0.00611320,-0.03847746,0.01746316,0.00340895,-0.000
 45512,0.00099971,-0.00018575,-0.00070670,0.00052701,-0.00063021,0.0023
 9392,0.00168810,-0.00418746,0.00960934,0.00322692,0.03878216,0.4463209
 0,0.01913834,0.02009801,-0.01518244,0.00914776,0.08281278,-0.10546847,
 -0.00356786,0.01177052,0.00099392,0.00167878,0.00144581,0.00395142,-0.
 00018796,0.00073067,-0.00008810,0.00350004,0.00063706,0.00282421,0.017
 01347,-0.00021117,0.00172879,-0.02235314,-0.04645565,0.43153711,-0.000
 01388,0.00269254,0.00198569,-0.02738764,0.01366460,0.01247979,-0.17229
 607,-0.00882165,0.07876591,-0.00982256,-0.00976377,0.01349635,0.001217
 90,0.00040489,0.00207114,0.00046769,0.00000617,-0.00023721,-0.00010942
 ,-0.00052501,-0.00002684,-0.00116418,-0.00107242,-0.00017836,0.2088065
 9,0.00207483,-0.00093831,0.00206758,0.02481296,-0.00291752,-0.00977378
 ,-0.00872555,-0.03568921,0.00202874,-0.02114623,-0.00684936,0.01807318
 ,0.00063197,-0.00155480,0.00291542,0.00005646,0.00014461,-0.00007464,0
 .00028558,-0.00039433,-0.00026434,-0.00099983,-0.00058076,-0.00030761,
 0.00318895,0.04973714,0.00228526,0.00171476,0.00362051,0.00706656,-0.0
 0341259,0.00373657,0.07871914,0.00208295,-0.08769559,0.01902365,0.0115
 7840,-0.01095449,0.00196063,0.00304496,0.00259487,-0.00026188,-0.00004
 606,0.00022870,-0.00042048,0.00019828,-0.00045917,-0.00021359,-0.00026
 608,-0.00213798,-0.10724379,-0.01452353,0.09182026,-0.00003870,-0.0000
 8236,0.00025894,0.00102428,0.00056741,0.00216645,0.00488615,0.00241763
 ,-0.00084104,-0.11089933,0.08958932,-0.00402181,-0.02966513,0.02108219
 ,0.00986694,-0.00104379,0.00053931,0.00342745,0.00017399,-0.00058450,-
 0.00034620,-0.00004096,-0.00063888,0.00007752,0.00041951,-0.00080056,-
 0.00051932,0.13634452,0.00034355,0.00021447,-0.00013232,-0.00029559,-0
 .00108117,0.00326877,0.01399509,-0.03397277,0.01116634,0.08965480,-0.1
 4497306,-0.00101158,0.00949562,0.00022857,-0.00282434,0.00063843,0.000
 82600,0.00186776,-0.00057399,0.00042661,-0.00033132,0.00039890,-0.0001
 2315,-0.00038577,-0.00055307,-0.00050191,-0.00000968,-0.11258215,0.178
 96009,0.00005364,0.00011135,0.00026031,0.00258356,0.00277742,0.0024806
 3,-0.00646228,0.01777022,0.00052772,-0.00405412,-0.00097446,-0.0389224
 7,0.01549118,-0.00943439,0.00131147,0.00337985,0.00192230,0.00256093,-
 0.00035150,-0.00032505,-0.00057133,-0.00042620,0.00020664,-0.00030551,
 -0.00063941,0.00013147,-0.00087068,-0.00970498,-0.01123743,0.03452055,
 -0.00028082,0.00214770,0.00214325,0.00008055,0.00011951,0.00009307,-0.
 00127998,0.00108032,0.00329968,-0.01358034,-0.02061478,0.02093609,-0.0
 4443763,-0.03476840,0.01843921,0.00259104,0.01829157,-0.00723944,-0.00
 009943,0.00050862,-0.00044612,-0.00011204,-0.00003814,-0.00044819,-0.0
 0013250,-0.00041672,0.00008901,-0.00076341,-0.00058600,-0.00001887,0.0
 5811841,0.00301032,-0.00077678,0.00123458,-0.00030648,0.00018656,0.000
 25216,0.00098179,0.00088106,0.00164503,-0.00902843,-0.00352291,0.00956
 595,-0.03483419,-0.16047488,0.07754455,0.00671469,-0.03343747,0.015060
 06,-0.00052934,-0.00010951,0.00013734,-0.00004897,0.00049335,-0.000663
 34,-0.00018684,-0.00001482,-0.00004712,-0.00035984,0.00059965,-0.00071
 467,0.03386434,0.19720578,0.00172441,0.00172722,0.00348091,0.00029941,
 0.00000898,0.00016987,0.00334754,0.00158807,0.00274145,0.01531085,0.01
 617756,-0.01102164,0.01847039,0.07750671,-0.08988284,-0.00161768,0.008
 45465,0.00228714,0.00005769,-0.00045475,-0.00026066,-0.00044318,-0.000
 66914,-0.00035217,-0.00002275,0.00008414,-0.00035892,-0.00012861,-0.00
 058565,-0.00093718,-0.03618035,-0.10365485,0.09450098,-0.00844331,-0.0
 1065515,0.01347828,0.00094253,0.00028414,0.00260896,0.00049695,0.00000
 179,-0.00025177,0.00017998,0.00257455,0.00160978,-0.02765692,0.0122387
 6,0.01298733,-0.17132299,-0.01056515,0.07904719,-0.00179483,0.00018065
 ,-0.00042689,-0.00020420,0.00046321,-0.00045255,-0.00036757,-0.0001667
 1,-0.00020663,-0.00036248,0.00001384,0.00001122,-0.00017847,0.00031899
 ,-0.00072165,0.20745364,-0.02180376,-0.00733622,0.01896936,0.00090152,
 -0.00116123,0.00284516,-0.00004820,0.00013737,-0.00001145,0.00234774,-
 0.00131248,0.00181890,0.02362110,-0.00268978,-0.00948934,-0.01066088,-
 0.03591873,0.00324386,0.00010787,-0.00043370,-0.00101097,-0.00034747,-
 0.00037221,0.00008617,-0.00016940,-0.00012501,-0.00026585,0.00024375,0
 .00003882,-0.00031878,0.00056643,-0.00036242,-0.00071611,0.00574488,0.
 05005554,0.01889110,0.01260905,-0.01078839,0.00230948,0.00319739,0.002
 88742,-0.00022747,-0.00004040,0.00020631,0.00171961,0.00168957,0.00339
 084,0.00746088,-0.00299536,0.00271992,0.07909307,0.00318847,-0.0884393
 3,-0.00039192,-0.00105228,-0.00165449,-0.00005881,-0.00037632,-0.00038
 665,-0.00020545,-0.00026743,-0.00062424,-0.00010061,-0.00018758,-0.000
 18252,-0.00084174,-0.00057501,-0.00041228,-0.10769933,-0.01613565,0.09
 285481,-0.02829873,0.01278787,-0.00963253,-0.00052343,0.00033518,0.000
 03393,0.00009693,0.00024452,0.00023406,0.00008973,-0.00022900,0.000059
 48,0.00006961,0.00005771,0.00041443,-0.00030784,-0.00015377,-0.0001437
 1,-0.17840346,-0.03689481,-0.05947256,0.00108097,0.00039529,-0.0004066
 7,-0.00008275,-0.00001420,0.00002632,-0.00012307,0.00010076,-0.0000457
 9,0.00007375,0.00007728,-0.00007658,0.00040739,-0.00002738,-0.00025671
 ,0.22604281,0.02144209,0.00131886,0.00759877,0.00089844,-0.00117104,-0
 .00004472,-0.00009703,-0.00039636,-0.00056452,0.00009913,0.00007723,-0
 .00010995,-0.00052264,-0.00003920,-0.00031926,0.00049814,-0.00105590,0
 .00022674,-0.03888862,-0.04499496,-0.01380335,0.00001387,-0.00059321,0
 .00087047,0.00009489,-0.00000766,0.00002067,0.00005936,0.00001480,0.00
 008122,0.00002142,0.00000496,0.00006853,0.00031743,-0.00016634,0.00045
 607,0.04371693,0.05314661,-0.00765079,0.00255813,0.00201588,0.00020790
 ,0.00000463,-0.00001426,0.00009166,0.00006251,-0.00004413,-0.00006057,
 0.00002809,-0.00001441,0.00007324,-0.00016968,0.00001054,0.00016285,0.
 00040415,-0.00025641,-0.05986539,-0.01376159,-0.05667200,0.00055252,-0
 .00063160,-0.00192611,-0.00000721,0.00000696,0.00005458,0.00001846,-0.
 00000334,0.00001009,0.00003339,0.00000946,0.00000658,-0.00019689,0.000
 40047,0.00002491,0.07051360,0.01331763,0.06211409,-0.00017836,-0.00007
 915,0.00029036,0.00314526,-0.00391238,0.00641228,-0.00031750,0.0004881
 1,0.00015672,-0.00015791,-0.00018732,-0.00001295,0.00001047,0.00013154
 ,-0.00009930,-0.00010413,-0.00003236,-0.00000827,-0.00132375,-0.000767
 18,-0.00080036,-0.03506066,0.00489738,0.02051625,0.00023698,0.00041872
 ,-0.00027674,0.00003685,-0.00002549,0.00000903,-0.00000704,-0.00005587
 ,0.00006812,0.00001759,0.00001302,0.00003758,-0.00008798,0.00000272,0.
 00024823,0.04135621,-0.00037869,-0.00127604,0.00075044,-0.00345050,-0.
 00134854,0.02468265,0.00004081,-0.00104462,0.00051928,-0.00006329,-0.0
 0002522,-0.00062974,-0.00015122,0.00008432,0.00002765,-0.00043080,-0.0
 0043313,-0.00038646,0.00078682,-0.00060811,0.00029387,0.00578039,-0.04
 023415,-0.03044206,0.00030831,-0.00013890,0.00045404,0.00005884,0.0000
 0109,0.00004993,0.00004166,0.00000368,0.00010313,-0.00002810,-0.000013
 91,0.00009888,-0.00000114,0.00009944,0.00003674,-0.00800165,0.04750059
 ,0.00014355,0.00026256,-0.00025389,0.00536193,0.01453830,-0.02676048,-
 0.00012853,0.00000037,-0.00025815,0.00028181,-0.00001786,0.00022409,0.
 00002508,-0.00018589,0.00005798,0.00005897,0.00021904,0.00019376,-0.00
 163929,-0.00015606,0.00049252,0.02079493,-0.02863257,-0.20477555,-0.00
 031283,0.00011931,0.00016787,-0.00009803,0.00006171,0.00004735,0.00000
 958,0.00009442,-0.00009485,0.00007801,-0.00000044,-0.00003952,0.000145
 37,0.00002816,0.00012518,-0.03257284,0.03125189,0.25244674,0.01559954,
 -0.00671115,-0.00234934,0.00033158,0.03078111,-0.01183928,-0.00143210,
 -0.00332128,0.00214922,-0.00043778,-0.00001553,0.00003812,-0.00018277,
 -0.00074193,0.00024415,-0.00406235,0.00339134,0.00039097,-0.08994977,-
 0.01795169,0.01477410,-0.11191253,0.01867806,0.00952056,-0.00020391,0.
 00082172,0.00014015,-0.00002475,-0.00008913,0.00021606,0.00007791,0.00
 079468,-0.00027194,0.00085598,-0.00063686,0.00024361,-0.01883511,-0.02
 308614,0.01354842,-0.00643343,0.01134413,0.01718384,0.49519920,0.00219
 380,-0.04056099,0.02123920,0.02187544,-0.03699901,0.00828381,-0.001532
 78,-0.00145351,0.00134312,-0.00026516,0.00107850,-0.00056148,-0.000492
 84,0.00101945,-0.00040336,0.00160230,-0.00083969,-0.00074392,-0.022442
 01,-0.08829115,0.01715555,0.02316834,-0.08316758,-0.01135484,0.0013474
 0,0.00042176,-0.00061383,0.00098707,-0.00108949,0.00010092,-0.00028151
 ,-0.00111351,0.00083677,-0.00116263,0.00017459,0.00093809,-0.01981303,
 -0.00580178,0.00720317,0.01430638,-0.00164668,-0.01260027,0.03457778,0
 .60101627,-0.00667299,0.02632504,-0.00320147,-0.00751565,0.00320388,0.
 00850331,0.00128115,0.00236322,-0.00236985,0.00015792,-0.00070266,-0.0
 0013498,0.00012391,-0.00025937,-0.00033002,0.00125956,-0.00176480,-0.0
 0035302,0.01695450,0.01459321,-0.09608952,0.00734235,-0.00879420,-0.07
 924886,-0.00011494,-0.00031375,0.00095887,-0.00030651,0.00071489,0.000
 10560,0.00025076,0.00022225,0.00002685,0.00049905,0.00063850,0.0001463
 3,0.00743550,0.00170964,0.01137999,0.02393376,-0.01749237,-0.00517481,
 0.15829121,0.07788620,0.67391534,-0.00545674,0.01622803,0.01309907,-0.
 00070151,0.00067117,0.00017604,-0.00033978,-0.00007217,-0.00026864,0.0
 0003875,-0.00020075,0.00004422,-0.00021390,-0.00015719,-0.00033011,-0.
 00029046,0.00014693,0.00034719,-0.03719476,0.01239112,0.02786059,-0.00
 082226,0.00001587,-0.00096499,-0.00001762,0.00003956,0.00007153,-0.000
 03590,0.00011590,0.00006039,0.00004739,0.00006738,-0.00000995,0.000486
 20,-0.00006456,0.00005140,-0.00001528,-0.00730390,-0.01543503,0.000020
 28,-0.00000999,0.00009404,0.00119309,-0.00294202,0.01974566,0.04542665
 ,0.01374229,-0.01884448,-0.02061708,0.00075759,-0.00087752,0.00009473,
 0.00037831,0.00005589,0.00049239,0.00006661,0.00011053,-0.00010272,0.0
 0000117,0.00042833,0.00038749,0.00026935,-0.00100667,0.00021732,0.0121
 0390,-0.06191357,-0.06070459,-0.00178603,-0.00107080,0.00007706,0.0000
 8111,-0.00002079,-0.00006197,0.00000254,-0.00008392,-0.00005773,-0.000
 05983,-0.00005355,0.00002213,-0.00004550,-0.00056393,-0.00003520,-0.00
 333489,0.00032909,-0.00898639,0.00003885,0.00006332,-0.00004549,-0.003
 64912,0.01059175,0.01637875,-0.01952855,0.07629501,0.00812236,-0.01205
 522,-0.00066281,-0.00031379,0.00041546,-0.00012994,-0.00017916,-0.0000
 7196,-0.00005844,-0.00012480,0.00009914,0.00000288,0.00021571,-0.00000
 228,-0.00017356,-0.00033507,0.00048123,-0.00032256,0.02936207,-0.06204
 758,-0.18095846,-0.00086376,0.00033292,0.00045353,0.00003203,0.0000373
 9,0.00000250,0.00007144,-0.00006180,0.00002142,-0.00003104,-0.00002346
 ,0.00009140,-0.00018507,0.00022768,0.00034349,-0.00735591,-0.00906715,
 -0.01362908,0.00007320,-0.00002867,-0.00010389,0.01556191,0.00861587,-
 0.02504037,-0.04283585,0.07538065,0.21957885,-0.00018474,0.00012120,-0
 .00010435,-0.00671718,-0.01741126,0.00427381,-0.00036387,0.00043469,-0
 .00035719,-0.00016761,0.00000480,0.00024063,0.00003952,0.00018132,-0.0
 0011282,0.00004460,-0.00002955,-0.00001747,0.00080816,0.00044540,0.000
 22653,-0.16150493,-0.06730213,-0.04457658,0.00040220,0.00032946,-0.000
 19126,0.00009791,-0.00003849,-0.00000208,-0.00003155,-0.00010765,0.000
 06253,-0.00003752,0.00001229,0.00001443,-0.00013698,-0.00003793,-0.000
 01787,-0.00022660,-0.00424136,-0.00756025,-0.03579105,0.00498305,-0.00
 314276,-0.00010173,-0.00000711,0.00013730,0.20217296,-0.00022849,-0.00
 097362,0.00068857,-0.02404264,-0.02321744,0.00147956,0.00010763,-0.000
 99856,0.00026850,0.00030242,0.00045652,0.00024369,-0.00013132,0.000121
 80,0.00000647,0.00025900,0.00004984,0.00059360,0.00107457,-0.00087534,
 -0.00150735,-0.06590433,-0.07111228,-0.02288760,0.00007627,-0.00053202
 ,-0.00012628,0.00006042,-0.00005286,-0.00004769,-0.00005012,-0.0001008
 8,-0.00002585,-0.00009696,-0.00003331,0.00004069,-0.00007665,0.0000551
 1,0.00001137,-0.00560634,0.00037837,-0.00714791,0.01192421,0.01217107,
 0.00426608,0.00004931,0.00014419,0.00005171,0.08448559,0.08845647,0.00
 035789,0.00080560,-0.00055130,0.00831986,0.00810490,0.00497146,0.00030
 436,0.00034495,-0.00025709,-0.00025857,-0.00012677,-0.00024853,0.00005
 168,-0.00011951,-0.00000895,-0.00003100,-0.00007396,-0.00043671,0.0000
 0632,0.00018897,-0.00137225,-0.04596358,-0.02339561,-0.04745021,0.0000
 2126,0.00000073,0.00039553,0.00001609,0.00004490,0.00004017,0.00004578
 ,0.00007098,0.00003398,0.00004704,0.00005397,0.00003491,0.00000400,-0.
 00002198,0.00006173,-0.01537341,-0.01140480,-0.01346740,0.00167602,0.0
 0164688,0.01036437,0.00021437,0.00009023,0.00009415,0.05079246,0.02444
 355,0.05067112,-0.00290796,0.00102616,0.00074498,-0.00123864,-0.000805
 87,0.00095827,0.00029575,0.00062022,-0.00033486,0.00016819,-0.00013205
 ,0.00003711,0.00009487,0.00005295,-0.00000844,0.00076333,-0.00071797,0
 .00003887,0.00348265,-0.02105827,-0.00001218,0.00852781,0.01900412,0.0
 0983718,-0.00012938,-0.00019704,0.00000008,-0.00009265,0.00008619,-0.0
 0004808,0.00000082,-0.00008160,-0.00001014,-0.00010900,0.00014139,-0.0
 0008530,0.00045666,0.00115415,0.00038895,-0.00174920,0.00004566,-0.000
 38092,-0.08612300,-0.07930740,-0.05524224,-0.00057339,0.00093790,-0.00
 158139,0.00072151,-0.00288949,-0.00132459,0.07429859,-0.00234596,0.001
 53975,0.00058604,0.00127448,0.00164290,-0.00151373,0.00030829,-0.00031
 025,0.00005735,0.00015624,-0.00053855,0.00019541,0.00015582,-0.0005270
 5,0.00019093,0.00001195,-0.00041232,0.00027550,-0.01744270,-0.02162460
 ,0.00125013,0.01168055,-0.01740296,-0.01544490,-0.00047463,0.00001563,
 0.00023491,-0.00035571,0.00037113,-0.00000247,0.00013074,0.00039031,-0
 .00028912,0.00041515,0.00009081,-0.00030364,0.00167263,-0.00073720,0.0
 0122456,0.00025541,-0.00088374,0.00194591,-0.08280424,-0.29893681,-0.1
 6254772,0.00108192,-0.00139644,-0.00236018,-0.00233821,-0.00184560,-0.
 00024454,0.09490037,0.33260222,-0.00008361,-0.00002479,-0.00031970,0.0
 0165312,0.00124285,-0.00209194,-0.00010377,-0.00058990,0.00056852,0.00
 004085,-0.00007537,0.00013301,0.00002802,-0.00018983,0.00019505,-0.000
 14930,0.00022782,0.00020292,0.00344445,0.00784524,0.01508445,0.0060016
 8,-0.01586281,0.00581729,-0.00015899,0.00006289,-0.00012200,-0.0000875
 4,-0.00000936,-0.00003523,0.00000598,0.00010052,-0.00014816,0.00007338
 ,-0.00012529,-0.00021756,0.00095366,0.00074279,-0.00161958,-0.00087104
 ,0.00121523,0.00073189,-0.05559921,-0.15672308,-0.16643527,-0.00160513
 ,-0.00306550,-0.00124367,-0.00123036,-0.00069729,-0.00209010,0.0664187
 4,0.18792881,0.17006555,-0.00082831,0.00004685,0.00041342,-0.00261237,
 -0.00215633,0.00222386,0.00022152,0.00097273,-0.00048616,0.00005338,0.
 00020384,-0.00007420,0.00001837,0.00039003,-0.00014659,0.00063930,-0.0
 0036311,-0.00006676,0.01538015,-0.00210122,0.00548542,-0.01740114,0.01
 706991,-0.01729576,0.00017658,-0.00019415,-0.00005120,0.00010686,-0.00
 009960,-0.00005280,-0.00008681,-0.00029066,0.00014093,-0.00036332,0.00
 005767,0.00004399,-0.00150317,0.00161820,-0.00260482,0.00082299,-0.001
 64867,-0.00148402,-0.15786933,0.02319928,-0.16428195,-0.00144878,0.000
 03004,0.00023065,0.00097687,0.00068630,0.00109444,0.00411296,-0.006282
 27,-0.01873043,0.15960523,-0.00083121,0.00048977,-0.00014207,0.0000118
 1,0.00041299,-0.00060345,0.00026859,0.00001066,-0.00003022,0.00008439,
 -0.00023074,0.00014738,0.00011880,-0.00021722,0.00012118,-0.00007544,-
 0.00009395,0.00021751,0.00158510,0.00208260,0.02153285,0.01709186,0.00
 433111,0.00962127,-0.00029884,-0.00005388,0.00004298,-0.00020424,0.000
 19746,-0.00003859,0.00004353,0.00020169,