 Default is to use a total of   8 processors:
                                8 via shared-memory
                                1 via Linda
 Entering Link 1 = C:\G16W\l1.exe PID=     18764.
  
 Copyright (c) 1988-2019, Gaussian, Inc.  All Rights Reserved.
  
 This is part of the Gaussian(R) 16 program.  It is based on
 the Gaussian(R) 09 system (copyright 2009, Gaussian, Inc.),
 the Gaussian(R) 03 system (copyright 2003, Gaussian, Inc.),
 the Gaussian(R) 98 system (copyright 1998, Gaussian, Inc.),
 the Gaussian(R) 94 system (copyright 1995, Gaussian, Inc.),
 the Gaussian 92(TM) system (copyright 1992, Gaussian, Inc.),
 the Gaussian 90(TM) system (copyright 1990, Gaussian, Inc.),
 the Gaussian 88(TM) system (copyright 1988, Gaussian, Inc.),
 the Gaussian 86(TM) system (copyright 1986, Carnegie Mellon
 University), and the Gaussian 82(TM) system (copyright 1983,
 Carnegie Mellon University). Gaussian is a federally registered
 trademark of Gaussian, Inc.
  
 This software contains proprietary and confidential information,
 including trade secrets, belonging to Gaussian, Inc.
  
 This software is provided under written license and may be
 used, copied, transmitted, or stored only in accord with that
 written license.
  
 The following legend is applicable only to US Government
 contracts under FAR:
  
                    RESTRICTED RIGHTS LEGEND
  
 Use, reproduction and disclosure by the US Government is
 subject to restrictions as set forth in subparagraphs (a)
 and (c) of the Commercial Computer Software - Restricted
 Rights clause in FAR 52.227-19.
  
 Gaussian, Inc.
 340 Quinnipiac St., Bldg. 40, Wallingford CT 06492
  
  
 ---------------------------------------------------------------
 Warning -- This program may not be used in any manner that
 competes with the business of Gaussian, Inc. or will provide
 assistance to any competitor of Gaussian, Inc.  The licensee
 of this program is prohibited from giving any competitor of
 Gaussian, Inc. access to this program.  By using this program,
 the user acknowledges that Gaussian, Inc. is engaged in the
 business of creating and licensing software in the field of
 computational chemistry and represents and warrants to the
 licensee that it is not a competitor of Gaussian, Inc. and that
 it will not use this program in any manner prohibited above.
 ---------------------------------------------------------------
  

 Cite this work as:
 Gaussian 16, Revision C.01,
 M. J. Frisch, G. W. Trucks, H. B. Schlegel, G. E. Scuseria, 
 M. A. Robb, J. R. Cheeseman, G. Scalmani, V. Barone, 
 G. A. Petersson, H. Nakatsuji, X. Li, M. Caricato, A. V. Marenich, 
 J. Bloino, B. G. Janesko, R. Gomperts, B. Mennucci, H. P. Hratchian, 
 J. V. Ortiz, A. F. Izmaylov, J. L. Sonnenberg, D. Williams-Young, 
 F. Ding, F. Lipparini, F. Egidi, J. Goings, B. Peng, A. Petrone, 
 T. Henderson, D. Ranasinghe, V. G. Zakrzewski, J. Gao, N. Rega, 
 G. Zheng, W. Liang, M. Hada, M. Ehara, K. Toyota, R. Fukuda, 
 J. Hasegawa, M. Ishida, T. Nakajima, Y. Honda, O. Kitao, H. Nakai, 
 T. Vreven, K. Throssell, J. A. Montgomery, Jr., J. E. Peralta, 
 F. Ogliaro, M. J. Bearpark, J. J. Heyd, E. N. Brothers, K. N. Kudin, 
 V. N. Staroverov, T. A. Keith, R. Kobayashi, J. Normand, 
 K. Raghavachari, A. P. Rendell, J. C. Burant, S. S. Iyengar, 
 J. Tomasi, M. Cossi, J. M. Millam, M. Klene, C. Adamo, R. Cammi, 
 J. W. Ochterski, R. L. Martin, K. Morokuma, O. Farkas, 
 J. B. Foresman, and D. J. Fox, Gaussian, Inc., Wallingford CT, 2019.
 
 ******************************************
 Gaussian 16:  EM64W-G16RevC.01 30-May-2019
                15-Nov-2025 
 ******************************************
 %mem=6GB
 %chk=C:\Users\al6323\OneDrive - Imperial College London\Desktop\TSR20251115\TS_B
 erny_opt+freq.chk
 %nprocshared=8
 Will use up to    8 processors via shared memory.
 Default route: MaxDisk=10GB
 ----------------------------------------------------------------------
 # opt=(calcfc,tight,ts,noeigen) freq rpm6 nosymm geom=connectivity scf
 =(tight,xqc)
 ----------------------------------------------------------------------
 1/5=1,7=10,10=4,11=1,18=20,26=1,38=1,57=2/1,3;
 2/9=110,12=2,15=1,17=6,18=5,40=1/2;
 3/5=2,25=1,41=3900000,71=2,116=1,140=1/1,2,3;
 4/35=1/1;
 5/5=2,8=3,13=1,32=2,35=1,38=5/2,8;
 8/6=4,10=90,11=11/1;
 11/6=1,8=1,9=11,15=111,16=1,31=1/1,2,10;
 10/6=1,13=1,31=1/2;
 6/7=2,8=2,9=2,10=2,28=1/1;
 7/10=1,25=1,30=1/1,2,3,16;
 1/5=1,7=10,10=4,11=1,18=20,26=1/3(2);
 2/9=110,15=1/2;
 99//99;
 2/9=110,15=1/2;
 3/5=2,25=1,41=3900000,71=1,116=1,135=20/1,2,3;
 4/5=5,16=3,35=1/1;
 5/5=2,8=3,13=1,32=2,35=1,38=5/2,8;
 7/30=1/1,2,3,16;
 1/5=1,7=10,11=1,18=20,26=1/3(-5);
 2/9=110,15=1/2;
 6/7=2,8=2,9=2,10=2,19=2,28=1/1;
 99/9=1/99;
 -------------------
 Title Card Required
 -------------------
 Symbolic Z-matrix:
 Charge =  0 Multiplicity = 1
 C                    -0.22776  -1.16543   0.04332 
 C                    -1.41374  -1.20304   0.82186 
 C                    -2.3601   -0.18736   0.70417 
 C                    -2.1289    0.8689   -0.18882 
 C                    -0.96246   0.90588  -0.95452 
 C                    -0.00521  -0.11269  -0.8417 
 C                     0.71133  -2.30392   0.2524 
 C                    -1.54416  -2.37543   1.73303 
 H                    -3.27126  -0.21162   1.29904 
 H                    -2.8674    1.66429  -0.28265 
 H                    -0.79074   1.73014  -1.64586 
 H                     0.90275  -0.07928  -1.441 
 H                     1.71334  -1.95239   0.57546 
 H                    -1.66103  -2.05938   2.79058 
 S                     0.35738  -4.13093   1.76791 
 H                     0.90848  -2.84941  -0.69392 
 H                    -2.46587  -2.9564    1.52118 
 O                     0.00564  -5.40052   1.17076 
 O                     1.15099  -4.12399   2.97718 
 

 GradGradGradGradGradGradGradGradGradGradGradGradGradGradGradGradGradGrad
 Berny optimization.
 Initialization pass.
                           ----------------------------
                           !    Initial Parameters    !
                           ! (Angstroms and Degrees)  !
 --------------------------                            --------------------------
 ! Name  Definition              Value          Derivative Info.                !
 --------------------------------------------------------------------------------
 ! R1    R(1,2)                  1.4192         calculate D2E/DX2 analytically  !
 ! R2    R(1,6)                  1.3932         calculate D2E/DX2 analytically  !
 ! R3    R(1,7)                  1.4906         calculate D2E/DX2 analytically  !
 ! R4    R(2,3)                  1.3932         calculate D2E/DX2 analytically  !
 ! R5    R(2,8)                  1.4906         calculate D2E/DX2 analytically  !
 ! R6    R(3,4)                  1.4023         calculate D2E/DX2 analytically  !
 ! R7    R(3,9)                  1.0884         calculate D2E/DX2 analytically  !
 ! R8    R(4,5)                  1.3958         calculate D2E/DX2 analytically  !
 ! R9    R(4,10)                 1.0894         calculate D2E/DX2 analytically  !
 ! R10   R(5,6)                  1.4023         calculate D2E/DX2 analytically  !
 ! R11   R(5,11)                 1.0894         calculate D2E/DX2 analytically  !
 ! R12   R(6,12)                 1.0884         calculate D2E/DX2 analytically  !
 ! R13   R(7,13)                 1.1099         calculate D2E/DX2 analytically  !
 ! R14   R(7,15)                 2.4            calculate D2E/DX2 analytically  !
 ! R15   R(7,16)                 1.1099         calculate D2E/DX2 analytically  !
 ! R16   R(8,14)                 1.1099         calculate D2E/DX2 analytically  !
 ! R17   R(8,15)                 2.5882         calculate D2E/DX2 analytically  !
 ! R18   R(8,17)                 1.1099         calculate D2E/DX2 analytically  !
 ! R19   R(15,18)                1.4464         calculate D2E/DX2 analytically  !
 ! R20   R(15,19)                1.4464         calculate D2E/DX2 analytically  !
 ! A1    A(2,1,6)              120.1316         calculate D2E/DX2 analytically  !
 ! A2    A(2,1,7)              115.4237         calculate D2E/DX2 analytically  !
 ! A3    A(6,1,7)              124.4447         calculate D2E/DX2 analytically  !
 ! A4    A(1,2,3)              120.1315         calculate D2E/DX2 analytically  !
 ! A5    A(1,2,8)              115.4239         calculate D2E/DX2 analytically  !
 ! A6    A(3,2,8)              124.4446         calculate D2E/DX2 analytically  !
 ! A7    A(2,3,4)              119.4            calculate D2E/DX2 analytically  !
 ! A8    A(2,3,9)              120.4119         calculate D2E/DX2 analytically  !
 ! A9    A(4,3,9)              120.1881         calculate D2E/DX2 analytically  !
 ! A10   A(3,4,5)              120.4684         calculate D2E/DX2 analytically  !
 ! A11   A(3,4,10)             119.5382         calculate D2E/DX2 analytically  !
 ! A12   A(5,4,10)             119.9934         calculate D2E/DX2 analytically  !
 ! A13   A(4,5,6)              120.4684         calculate D2E/DX2 analytically  !
 ! A14   A(4,5,11)             119.9933         calculate D2E/DX2 analytically  !
 ! A15   A(6,5,11)             119.5383         calculate D2E/DX2 analytically  !
 ! A16   A(1,6,5)              119.4001         calculate D2E/DX2 analytically  !
 ! A17   A(1,6,12)             120.412          calculate D2E/DX2 analytically  !
 ! A18   A(5,6,12)             120.1879         calculate D2E/DX2 analytically  !
 ! A19   A(1,7,13)             111.5729         calculate D2E/DX2 analytically  !
 ! A20   A(1,7,15)             125.2472         calculate D2E/DX2 analytically  !
 ! A21   A(1,7,16)             111.5734         calculate D2E/DX2 analytically  !
 ! A22   A(13,7,15)            100.9786         calculate D2E/DX2 analytically  !
 ! A23   A(13,7,16)            104.0908         calculate D2E/DX2 analytically  !
 ! A24   A(15,7,16)            100.9787         calculate D2E/DX2 analytically  !
 ! A25   A(2,8,14)             111.5732         calculate D2E/DX2 analytically  !
 ! A26   A(2,8,15)             118.5183         calculate D2E/DX2 analytically  !
 ! A27   A(2,8,17)             111.5731         calculate D2E/DX2 analytically  !
 ! A28   A(14,8,15)            104.9308         calculate D2E/DX2 analytically  !
 ! A29   A(14,8,17)            104.091          calculate D2E/DX2 analytically  !
 ! A30   A(15,8,17)            104.9311         calculate D2E/DX2 analytically  !
 ! A31   A(7,15,8)              65.3868         calculate D2E/DX2 analytically  !
 ! A32   A(7,15,18)            116.3177         calculate D2E/DX2 analytically  !
 ! A33   A(7,15,19)            116.3182         calculate D2E/DX2 analytically  !
 ! A34   A(8,15,18)            114.2746         calculate D2E/DX2 analytically  !
 ! A35   A(8,15,19)            114.2746         calculate D2E/DX2 analytically  !
 ! A36   A(18,15,19)           118.8674         calculate D2E/DX2 analytically  !
 ! D1    D(6,1,2,3)              0.0001         calculate D2E/DX2 analytically  !
 ! D2    D(6,1,2,8)           -179.9998         calculate D2E/DX2 analytically  !
 ! D3    D(7,1,2,3)            180.0            calculate D2E/DX2 analytically  !
 ! D4    D(7,1,2,8)              0.0001         calculate D2E/DX2 analytically  !
 ! D5    D(2,1,6,5)             -0.0001         calculate D2E/DX2 analytically  !
 ! D6    D(2,1,6,12)           179.9999         calculate D2E/DX2 analytically  !
 ! D7    D(7,1,6,5)           -179.9999         calculate D2E/DX2 analytically  !
 ! D8    D(7,1,6,12)             0.0001         calculate D2E/DX2 analytically  !
 ! D9    D(2,1,7,13)          -122.0171         calculate D2E/DX2 analytically  !
 ! D10   D(2,1,7,15)            -0.0008         calculate D2E/DX2 analytically  !
 ! D11   D(2,1,7,16)           122.0161         calculate D2E/DX2 analytically  !
 ! D12   D(6,1,7,13)            57.9828         calculate D2E/DX2 analytically  !
 ! D13   D(6,1,7,15)           179.999          calculate D2E/DX2 analytically  !
 ! D14   D(6,1,7,16)           -57.9841         calculate D2E/DX2 analytically  !
 ! D15   D(1,2,3,4)              0.0001         calculate D2E/DX2 analytically  !
 ! D16   D(1,2,3,9)            179.9999         calculate D2E/DX2 analytically  !
 ! D17   D(8,2,3,4)            180.0            calculate D2E/DX2 analytically  !
 ! D18   D(8,2,3,9)             -0.0002         calculate D2E/DX2 analytically  !
 ! D19   D(1,2,8,14)           122.017          calculate D2E/DX2 analytically  !
 ! D20   D(1,2,8,15)             0.0006         calculate D2E/DX2 analytically  !
 ! D21   D(1,2,8,17)          -122.016          calculate D2E/DX2 analytically  !
 ! D22   D(3,2,8,14)           -57.9829         calculate D2E/DX2 analytically  !
 ! D23   D(3,2,8,15)          -179.9993         calculate D2E/DX2 analytically  !
 ! D24   D(3,2,8,17)            57.9841         calculate D2E/DX2 analytically  !
 ! D25   D(2,3,4,5)             -0.0003         calculate D2E/DX2 analytically  !
 ! D26   D(2,3,4,10)           179.9996         calculate D2E/DX2 analytically  !
 ! D27   D(9,3,4,5)            179.9998         calculate D2E/DX2 analytically  !
 ! D28   D(9,3,4,10)            -0.0002         calculate D2E/DX2 analytically  !
 ! D29   D(3,4,5,6)              0.0003         calculate D2E/DX2 analytically  !
 ! D30   D(3,4,5,11)          -179.9995         calculate D2E/DX2 analytically  !
 ! D31   D(10,4,5,6)          -179.9996         calculate D2E/DX2 analytically  !
 ! D32   D(10,4,5,11)            0.0006         calculate D2E/DX2 analytically  !
 ! D33   D(4,5,6,1)             -0.0002         calculate D2E/DX2 analytically  !
 ! D34   D(4,5,6,12)           179.9999         calculate D2E/DX2 analytically  !
 ! D35   D(11,5,6,1)           179.9997         calculate D2E/DX2 analytically  !
 ! D36   D(11,5,6,12)           -0.0003         calculate D2E/DX2 analytically  !
 ! D37   D(1,7,15,8)             0.0008         calculate D2E/DX2 analytically  !
 ! D38   D(1,7,15,18)          106.1356         calculate D2E/DX2 analytically  !
 ! D39   D(1,7,15,19)         -106.1338         calculate D2E/DX2 analytically  !
 ! D40   D(13,7,15,8)          126.5638         calculate D2E/DX2 analytically  !
 ! D41   D(13,7,15,18)        -127.3014         calculate D2E/DX2 analytically  !
 ! D42   D(13,7,15,19)          20.4292         calculate D2E/DX2 analytically  !
 ! D43   D(16,7,15,8)         -126.5629         calculate D2E/DX2 analytically  !
 ! D44   D(16,7,15,18)         -20.4282         calculate D2E/DX2 analytically  !
 ! D45   D(16,7,15,19)         127.3025         calculate D2E/DX2 analytically  !
 ! D46   D(2,8,15,7)            -0.0007         calculate D2E/DX2 analytically  !
 ! D47   D(2,8,15,18)         -109.1695         calculate D2E/DX2 analytically  !
 ! D48   D(2,8,15,19)          109.1686         calculate D2E/DX2 analytically  !
 ! D49   D(14,8,15,7)         -125.3092         calculate D2E/DX2 analytically  !
 ! D50   D(14,8,15,18)         125.522          calculate D2E/DX2 analytically  !
 ! D51   D(14,8,15,19)         -16.1399         calculate D2E/DX2 analytically  !
 ! D52   D(17,8,15,7)          125.3078         calculate D2E/DX2 analytically  !
 ! D53   D(17,8,15,18)          16.139          calculate D2E/DX2 analytically  !
 ! D54   D(17,8,15,19)        -125.5228         calculate D2E/DX2 analytically  !
 --------------------------------------------------------------------------------
 Trust Radius=3.00D-01 FncErr=1.00D-07 GrdErr=1.00D-07 EigMax=2.50D+02 EigMin=1.00D-04
 Number of steps in this run=    114 maximum allowed number of steps=    114.
 Search for a saddle point of order  1.
 GradGradGradGradGradGradGradGradGradGradGradGradGradGradGradGradGradGrad

                          Input orientation:                          
 ---------------------------------------------------------------------
 Center     Atomic      Atomic             Coordinates (Angstroms)
 Number     Number       Type             X           Y           Z
 ---------------------------------------------------------------------
      1          6           0       -0.227756   -1.165434    0.043319
      2          6           0       -1.413735   -1.203038    0.821860
      3          6           0       -2.360098   -0.187356    0.704172
      4          6           0       -2.128898    0.868896   -0.188820
      5          6           0       -0.962464    0.905881   -0.954523
      6          6           0       -0.005210   -0.112693   -0.841699
      7          6           0        0.711332   -2.303921    0.252401
      8          6           0       -1.544162   -2.375433    1.733029
      9          1           0       -3.271260   -0.211625    1.299040
     10          1           0       -2.867396    1.664289   -0.282646
     11          1           0       -0.790738    1.730141   -1.645856
     12          1           0        0.902753   -0.079281   -1.440999
     13          1           0        1.713336   -1.952392    0.575457
     14          1           0       -1.661031   -2.059382    2.790575
     15         16           0        0.357384   -4.130928    1.767909
     16          1           0        0.908477   -2.849414   -0.693916
     17          1           0       -2.465872   -2.956398    1.521181
     18          8           0        0.005638   -5.400520    1.170756
     19          8           0        1.150986   -4.123989    2.977177
 ---------------------------------------------------------------------
                    Distance matrix (angstroms):
                    1          2          3          4          5
     1  C    0.000000
     2  C    1.419185   0.000000
     3  C    2.437262   1.393221   0.000000
     4  C    2.794053   2.413678   1.402339   0.000000
     5  C    2.413676   2.794052   2.428954   1.395793   0.000000
     6  C    1.393215   2.437258   2.817941   2.428955   1.402340
     7  C    1.490555   2.460110   3.757344   4.281163   3.815900
     8  C    2.460110   1.490553   2.551858   3.815899   4.281160
     9  H    3.427754   2.158934   1.088427   2.164773   3.414367
    10  H    3.883463   3.399210   2.158645   1.089418   2.157630
    11  H    3.399209   3.883463   3.415013   2.157630   1.089420
    12  H    2.158930   3.427751   3.906358   3.414367   2.164772
    13  H    2.161090   3.225030   4.441260   4.827686   4.203626
    14  H    3.225033   2.161092   2.888989   4.203630   4.827685
    15  S    3.480050   3.550269   4.905916   5.916809   5.875635
    16  H    2.161095   3.225027   4.441260   4.827691   4.203639
    17  H    3.225026   2.161091   2.888994   4.203633   4.827685
    18  O    4.388797   4.444683   5.743822   6.760937   6.724934
    19  O    4.388792   4.444676   5.743810   6.760923   6.724919
                    6          7          8          9         10
     6  C    0.000000
     7  C    2.551856   0.000000
     8  C    3.757338   2.699005   0.000000
     9  H    3.906358   4.618895   2.802369   0.000000
    10  H    3.415013   5.370313   4.704598   2.486742   0.000000
    11  H    2.158648   4.704599   5.370311   4.312291   2.484993
    12  H    1.088427   2.802368   4.618891   4.994768   4.312290
    13  H    2.888983   1.109932   3.482848   5.329169   5.899138
    14  H    4.441257   3.482849   1.109933   2.869097   4.976518
    15  S    4.804970   2.400000   2.588215   5.361700   6.941795
    16  H    2.888998   1.109929   3.482838   5.329165   5.899142
    17  H    4.441252   3.482838   1.109932   2.869107   4.976521
    18  O    5.657845   3.306102   3.445169   6.138334   7.763905
    19  O    5.657835   3.306108   3.445168   6.138322   7.763891
                   11         12         13         14         15
    11  H    0.000000
    12  H    2.486742   0.000000
    13  H    4.976512   2.869091   0.000000
    14  H    5.899137   5.329166   4.037890   0.000000
    15  S    6.879252   5.197149   2.829588   3.067759   0.000000
    16  H    4.976530   2.869112   1.750358   4.400932   2.829587
    17  H    5.899139   5.329160   4.400932   1.750363   3.067763
    18  O    7.708038   5.995137   3.893610   4.069988   1.446438
    19  O    7.708020   5.995128   3.286386   3.493546   1.446437
                   16         17         18         19
    16  H    0.000000
    17  H    4.037862   0.000000
    18  O    3.286375   3.493550   0.000000
    19  O    3.893619   4.069995   2.490885   0.000000
 Symmetry turned off by external request.
 Stoichiometry    C8H8O2S
 Framework group  C1[X(C8H8O2S)]
 Deg. of freedom    51
 Full point group                 C1      NOp   1
 Rotational constants (GHZ):           2.5260472           0.4875179           0.4467289
 Standard basis: VSTO-6G (5D, 7F)
    57 basis functions,   348 primitive gaussians,    58 cartesian basis functions
    29 alpha electrons       29 beta electrons
       nuclear repulsion energy       323.2977098928 Hartrees.
 Integral buffers will be    131072 words long.
 Regular integral format.
 Two-electron integral symmetry is turned off.
 Do NDO integrals.
 One-electron integrals computed using PRISM.
 NBasis=    57 RedAO= F EigKep=  0.00D+00  NBF=    57
 NBsUse=    57 1.00D-04 EigRej=  0.00D+00 NBFU=    57
 Nonelectrostatic core Hamiltonian diagonalized for initial guess.
 Keep J ints in memory in canonical form, NReq=1859402.
 Overlap will be assumed to be unity.
 Requested convergence on RMS density matrix=1.00D-08 within  32 cycles.
 Requested convergence on MAX density matrix=1.00D-06.
 Requested convergence on             energy=1.00D-06.
 No special actions if energy rises.
 SCF Done:  E(RPM6) =  0.111477044534     A.U. after   24 cycles
            NFock= 23  Conv=0.47D-08     -V/T= 1.0010
 QCSCF skips out because SCF is already converged.
 Range of M.O.s used for correlation:     1    57
 NBasis=    57 NAE=    29 NBE=    29 NFC=     0 NFV=     0
 NROrb=     57 NOA=    29 NOB=    29 NVA=    28 NVB=    28
 Symmetrizing basis deriv contribution to polar:
 IMax=3 JMax=2 DiffMx= 0.00D+00
 G2DrvN: will do    20 centers at a time, making    1 passes.
 Calling FoFCou, ICntrl=  3107 FMM=F I1Cent=   0 AccDes= 0.00D+00.
 End of G2Drv F.D. properties file   721 does not exist.
 End of G2Drv F.D. properties file   722 does not exist.
 End of G2Drv F.D. properties file   788 does not exist.
          IDoAtm=1111111111111111111
          Differentiating once with respect to nuclear coordinates.
          Electric field/nuclear overlap derivatives assumed to be zero.
 Keep J ints in memory in canonical form, NReq=1861376.
          There are    60 degrees of freedom in the 1st order CPHF.  IDoFFX=5 NUNeed=    60.
 LinEq1:  Iter=  0 NonCon=    57 RMS=1.37D-02 Max=1.32D-01 NDo=    57
 AX will form    60 AO Fock derivatives at one time.
 LinEq1:  Iter=  1 NonCon=    57 RMS=4.73D-03 Max=5.58D-02 NDo=    60
 LinEq1:  Iter=  2 NonCon=    57 RMS=1.28D-03 Max=2.03D-02 NDo=    60
 LinEq1:  Iter=  3 NonCon=    57 RMS=3.84D-04 Max=5.25D-03 NDo=    60
 LinEq1:  Iter=  4 NonCon=    57 RMS=9.88D-05 Max=1.16D-03 NDo=    60
 LinEq1:  Iter=  5 NonCon=    57 RMS=2.54D-05 Max=2.71D-04 NDo=    60
 LinEq1:  Iter=  6 NonCon=    57 RMS=6.32D-06 Max=6.21D-05 NDo=    60
 LinEq1:  Iter=  7 NonCon=    57 RMS=1.63D-06 Max=1.97D-05 NDo=    60
 LinEq1:  Iter=  8 NonCon=    57 RMS=3.04D-07 Max=3.20D-06 NDo=    60
 LinEq1:  Iter=  9 NonCon=    40 RMS=6.65D-08 Max=9.47D-07 NDo=    60
 LinEq1:  Iter= 10 NonCon=     9 RMS=1.93D-08 Max=2.91D-07 NDo=    40
 LinEq1:  Iter= 11 NonCon=     0 RMS=5.18D-09 Max=6.43D-08 NDo=     9
 Linear equations converged to 1.000D-08 1.000D-07 after    11 iterations.
 End of Minotr F.D. properties file   721 does not exist.
 End of Minotr F.D. properties file   722 does not exist.
 End of Minotr F.D. properties file   788 does not exist.

 **********************************************************************

            Population analysis using the SCF Density.

 **********************************************************************

 Alpha  occ. eigenvalues --   -1.18911  -1.09965  -1.09262  -0.98824  -0.97377
 Alpha  occ. eigenvalues --   -0.87346  -0.84297  -0.77422  -0.75308  -0.72267
 Alpha  occ. eigenvalues --   -0.62446  -0.57560  -0.57366  -0.56934  -0.55465
 Alpha  occ. eigenvalues --   -0.54896  -0.54139  -0.51871  -0.51150  -0.50737
 Alpha  occ. eigenvalues --   -0.46219  -0.45701  -0.45124  -0.45001  -0.44273
 Alpha  occ. eigenvalues --   -0.39641  -0.35727  -0.34066  -0.31032
 Alpha virt. eigenvalues --   -0.09031  -0.01564   0.00793   0.01152   0.05499
 Alpha virt. eigenvalues --    0.07412   0.09377   0.14064   0.14669   0.17446
 Alpha virt. eigenvalues --    0.17710   0.18014   0.18234   0.18939   0.19080
 Alpha virt. eigenvalues --    0.20398   0.20543   0.21111   0.21573   0.22223
 Alpha virt. eigenvalues --    0.22608   0.22658   0.23300   0.23649   0.23780
 Alpha virt. eigenvalues --    0.23797   0.25674   0.28506
          Condensed to atoms (all electrons):
               1          2          3          4          5          6
     1  C    3.972816   0.000000   0.000000   0.000000   0.000000   0.000000
     2  C    0.000000   3.945552   0.000000   0.000000   0.000000   0.000000
     3  C    0.000000   0.000000   4.191003   0.000000   0.000000   0.000000
     4  C    0.000000   0.000000   0.000000   4.134437   0.000000   0.000000
     5  C    0.000000   0.000000   0.000000   0.000000   4.149453   0.000000
     6  C    0.000000   0.000000   0.000000   0.000000   0.000000   4.175568
     7  C    0.000000   0.000000   0.000000   0.000000   0.000000   0.000000
     8  C    0.000000   0.000000   0.000000   0.000000   0.000000   0.000000
     9  H    0.000000   0.000000   0.000000   0.000000   0.000000   0.000000
    10  H    0.000000   0.000000   0.000000   0.000000   0.000000   0.000000
    11  H    0.000000   0.000000   0.000000   0.000000   0.000000   0.000000
    12  H    0.000000   0.000000   0.000000   0.000000   0.000000   0.000000
    13  H    0.000000   0.000000   0.000000   0.000000   0.000000   0.000000
    14  H    0.000000   0.000000   0.000000   0.000000   0.000000   0.000000
    15  S    0.000000   0.000000   0.000000   0.000000   0.000000   0.000000
    16  H    0.000000   0.000000   0.000000   0.000000   0.000000   0.000000
    17  H    0.000000   0.000000   0.000000   0.000000   0.000000   0.000000
    18  O    0.000000   0.000000   0.000000   0.000000   0.000000   0.000000
    19  O    0.000000   0.000000   0.000000   0.000000   0.000000   0.000000
               7          8          9         10         11         12
     1  C    0.000000   0.000000   0.000000   0.000000   0.000000   0.000000
     2  C    0.000000   0.000000   0.000000   0.000000   0.000000   0.000000
     3  C    0.000000   0.000000   0.000000   0.000000   0.000000   0.000000
     4  C    0.000000   0.000000   0.000000   0.000000   0.000000   0.000000
     5  C    0.000000   0.000000   0.000000   0.000000   0.000000   0.000000
     6  C    0.000000   0.000000   0.000000   0.000000   0.000000   0.000000
     7  C    4.457712   0.000000   0.000000   0.000000   0.000000   0.000000
     8  C    0.000000   4.492665   0.000000   0.000000   0.000000   0.000000
     9  H    0.000000   0.000000   0.847057   0.000000   0.000000   0.000000
    10  H    0.000000   0.000000   0.000000   0.854574   0.000000   0.000000
    11  H    0.000000   0.000000   0.000000   0.000000   0.853336   0.000000
    12  H    0.000000   0.000000   0.000000   0.000000   0.000000   0.849740
    13  H    0.000000   0.000000   0.000000   0.000000   0.000000   0.000000
    14  H    0.000000   0.000000   0.000000   0.000000   0.000000   0.000000
    15  S    0.000000   0.000000   0.000000   0.000000   0.000000   0.000000
    16  H    0.000000   0.000000   0.000000   0.000000   0.000000   0.000000
    17  H    0.000000   0.000000   0.000000   0.000000   0.000000   0.000000
    18  O    0.000000   0.000000   0.000000   0.000000   0.000000   0.000000
    19  O    0.000000   0.000000   0.000000   0.000000   0.000000   0.000000
              13         14         15         16         17         18
     1  C    0.000000   0.000000   0.000000   0.000000   0.000000   0.000000
     2  C    0.000000   0.000000   0.000000   0.000000   0.000000   0.000000
     3  C    0.000000   0.000000   0.000000   0.000000   0.000000   0.000000
     4  C    0.000000   0.000000   0.000000   0.000000   0.000000   0.000000
     5  C    0.000000   0.000000   0.000000   0.000000   0.000000   0.000000
     6  C    0.000000   0.000000   0.000000   0.000000   0.000000   0.000000
     7  C    0.000000   0.000000   0.000000   0.000000   0.000000   0.000000
     8  C    0.000000   0.000000   0.000000   0.000000   0.000000   0.000000
     9  H    0.000000   0.000000   0.000000   0.000000   0.000000   0.000000
    10  H    0.000000   0.000000   0.000000   0.000000   0.000000   0.000000
    11  H    0.000000   0.000000   0.000000   0.000000   0.000000   0.000000
    12  H    0.000000   0.000000   0.000000   0.000000   0.000000   0.000000
    13  H    0.849054   0.000000   0.000000   0.000000   0.000000   0.000000
    14  H    0.000000   0.849904   0.000000   0.000000   0.000000   0.000000
    15  S    0.000000   0.000000   4.292446   0.000000   0.000000   0.000000
    16  H    0.000000   0.000000   0.000000   0.849054   0.000000   0.000000
    17  H    0.000000   0.000000   0.000000   0.000000   0.849903   0.000000
    18  O    0.000000   0.000000   0.000000   0.000000   0.000000   6.692863
    19  O    0.000000   0.000000   0.000000   0.000000   0.000000   0.000000
              19
     1  C    0.000000
     2  C    0.000000
     3  C    0.000000
     4  C    0.000000
     5  C    0.000000
     6  C    0.000000
     7  C    0.000000
     8  C    0.000000
     9  H    0.000000
    10  H    0.000000
    11  H    0.000000
    12  H    0.000000
    13  H    0.000000
    14  H    0.000000
    15  S    0.000000
    16  H    0.000000
    17  H    0.000000
    18  O    0.000000
    19  O    6.692862
 Mulliken charges:
               1
     1  C    0.027184
     2  C    0.054448
     3  C   -0.191003
     4  C   -0.134437
     5  C   -0.149453
     6  C   -0.175568
     7  C   -0.457712
     8  C   -0.492665
     9  H    0.152943
    10  H    0.145426
    11  H    0.146664
    12  H    0.150260
    13  H    0.150946
    14  H    0.150096
    15  S    1.707554
    16  H    0.150946
    17  H    0.150097
    18  O   -0.692863
    19  O   -0.692862
 Sum of Mulliken charges =   0.00000
 Mulliken charges with hydrogens summed into heavy atoms:
               1
     1  C    0.027184
     2  C    0.054448
     3  C   -0.038059
     4  C    0.010989
     5  C   -0.002789
     6  C   -0.025308
     7  C   -0.155820
     8  C   -0.192472
    15  S    1.707554
    18  O   -0.692863
    19  O   -0.692862
 APT charges:
               1
     1  C    0.027184
     2  C    0.054448
     3  C   -0.191003
     4  C   -0.134437
     5  C   -0.149453
     6  C   -0.175568
     7  C   -0.457712
     8  C   -0.492665
     9  H    0.152943
    10  H    0.145426
    11  H    0.146664
    12  H    0.150260
    13  H    0.150946
    14  H    0.150096
    15  S    1.707554
    16  H    0.150946
    17  H    0.150097
    18  O   -0.692863
    19  O   -0.692862
 Sum of APT charges =   0.00000
 APT charges with hydrogens summed into heavy atoms:
               1
     1  C    0.027184
     2  C    0.054448
     3  C   -0.038059
     4  C    0.010989
     5  C   -0.002789
     6  C   -0.025308
     7  C   -0.155820
     8  C   -0.192472
    15  S    1.707554
    18  O   -0.692863
    19  O   -0.692862
 Charge=              0.0000 electrons
 Dipole moment (field-independent basis, Debye):
    X=             -0.5109    Y=              1.7424    Z=             -1.3047  Tot=              2.2359
 N-N= 3.232977098928D+02 E-N=-4.996316906568D+02  KE=-1.097341922331D+02
  Exact polarizability:       0.000       0.000       0.000       0.000       0.000       0.000
 Approx polarizability:     107.767     -27.862     117.342     -17.922     -30.705      79.243
 Calling FoFJK, ICntrl=    100127 FMM=F ISym2X=0 I1Cent= 0 IOpClX= 0 NMat=1 NMatS=1 NMatT=0.
 -------------------------------------------------------------------
 Center     Atomic                   Forces (Hartrees/Bohr)
 Number     Number              X              Y              Z
 -------------------------------------------------------------------
      1        6           0.001539034   -0.031909521    0.021572785
      2        6           0.017666114   -0.032518038    0.011778080
      3        6          -0.001111459   -0.000038416    0.000731592
      4        6           0.000380009    0.000103598   -0.000314126
      5        6          -0.000486797    0.000212652    0.000158505
      6        6           0.002102502   -0.001184249   -0.000495904
      7        6           0.039543275   -0.012416424   -0.016296174
      8        6          -0.028946577   -0.000995210    0.019057382
      9        1           0.000459291    0.000100975   -0.000362521
     10        1           0.000277241   -0.000345945    0.000068923
     11        1           0.000003042   -0.000464470    0.000325942
     12        1          -0.000553733    0.000217029    0.000197708
     13        1          -0.012055441   -0.006868927    0.008469638
     14        1           0.015381664   -0.009196074   -0.009125004
     15       16          -0.036844433    0.070723044   -0.026618059
     16        1          -0.009369254   -0.003875137    0.012706052
     17        1           0.019297102   -0.004832753   -0.002949624
     18        8           0.004009546    0.025170784    0.002613433
     19        8          -0.011291128    0.008117081   -0.021518629
 -------------------------------------------------------------------
 Cartesian Forces:  Max     0.070723044 RMS     0.016705605
 FormGI is forming the generalized inverse of G from B-inverse, IUseBI=4.

 GradGradGradGradGradGradGradGradGradGradGradGradGradGradGradGradGradGrad
 Berny optimization.
 Internal  Forces:  Max     0.061667597 RMS     0.012928270
 Search for a saddle point.
 Step number   1 out of a maximum of  114
 All quantities printed in internal units (Hartrees-Bohrs-Radians)
 Swapping is turned off.
 Second derivative matrix not updated -- analytic derivatives used.
 ITU=  0
     Eigenvalues ---   -0.06307  -0.01498  -0.00353   0.00168   0.00606
     Eigenvalues ---    0.01058   0.01158   0.01230   0.01393   0.01614
     Eigenvalues ---    0.01785   0.02363   0.02386   0.02710   0.02723
     Eigenvalues ---    0.02760   0.02795   0.02991   0.03017   0.05166
     Eigenvalues ---    0.05787   0.06045   0.07203   0.07429   0.08835
     Eigenvalues ---    0.10761   0.10934   0.10973   0.12021   0.13822
     Eigenvalues ---    0.14887   0.15342   0.15595   0.23742   0.23851
     Eigenvalues ---    0.24542   0.24865   0.25055   0.26387   0.26396
     Eigenvalues ---    0.27674   0.28098   0.34568   0.35085   0.45190
     Eigenvalues ---    0.47375   0.48024   0.51669   0.53611   0.54138
     Eigenvalues ---    0.68775
 Eigenvectors required to have negative eigenvalues:
                          R17       R14       A31       A24       A22
   1                    0.71725   0.62080  -0.15989  -0.09501  -0.09500
                          A20       A30       A28       A26       D44
   1                    0.07781  -0.07012  -0.07010   0.04238  -0.04238
 RFO step:  Lambda0=5.933140858D-02 Lambda=-5.92149498D-02.
 Linear search not attempted -- option 19 set.
 Maximum step size (   0.300) exceeded in Quadratic search.
    -- Step size scaled by   0.273
 Iteration  1 RMS(Cart)=  0.03817309 RMS(Int)=  0.00493918
 Iteration  2 RMS(Cart)=  0.00715715 RMS(Int)=  0.00067123
 Iteration  3 RMS(Cart)=  0.00001705 RMS(Int)=  0.00067114
 Iteration  4 RMS(Cart)=  0.00000001 RMS(Int)=  0.00067114
 Variable       Old X    -DE/DX   Delta X   Delta X   Delta X     New X
                                 (Linear)    (Quad)   (Total)
    R1        2.68187   0.01404   0.00000   0.00573   0.00619   2.68806
    R2        2.63280   0.00026   0.00000   0.00553   0.00554   2.63833
    R3        2.81674  -0.02416   0.00000  -0.01902  -0.01912   2.79763
    R4        2.63281   0.00096   0.00000   0.00431   0.00436   2.63716
    R5        2.81674  -0.02714   0.00000  -0.03547  -0.03501   2.78172
    R6        2.65004  -0.00106   0.00000  -0.00266  -0.00267   2.64737
    R7        2.05683  -0.00058   0.00000   0.00023   0.00023   2.05705
    R8        2.63767  -0.00223   0.00000  -0.00104  -0.00110   2.63657
    R9        2.05870  -0.00045   0.00000  -0.00035  -0.00035   2.05835
   R10        2.65004  -0.00101   0.00000  -0.00257  -0.00262   2.64742
   R11        2.05870  -0.00056   0.00000  -0.00022  -0.00022   2.05848
   R12        2.05683  -0.00056   0.00000   0.00039   0.00039   2.05722
   R13        2.09747  -0.01059   0.00000  -0.01053  -0.01053   2.08693
   R14        4.53534  -0.06167   0.00000  -0.03539  -0.03584   4.49950
   R15        2.09746  -0.01059   0.00000  -0.00983  -0.00983   2.08763
   R16        2.09747  -0.01293   0.00000  -0.01811  -0.01811   2.07936
   R17        4.89102  -0.05745   0.00000   0.25290   0.25289   5.14391
   R18        2.09747  -0.01293   0.00000  -0.01714  -0.01714   2.08033
   R19        2.73337  -0.02415   0.00000  -0.01280  -0.01280   2.72057
   R20        2.73337  -0.02415   0.00000  -0.01244  -0.01244   2.72092
    A1        2.09669  -0.00316   0.00000  -0.00855  -0.00853   2.08816
    A2        2.01452   0.01873   0.00000   0.04337   0.04357   2.05809
    A3        2.17197  -0.01558   0.00000  -0.03481  -0.03505   2.13692
    A4        2.09669  -0.00343   0.00000  -0.00286  -0.00309   2.09360
    A5        2.01453   0.01624   0.00000   0.01767   0.01842   2.03295
    A6        2.17197  -0.01280   0.00000  -0.01481  -0.01534   2.15663
    A7        2.08392   0.00264   0.00000   0.00734   0.00747   2.09139
    A8        2.10158  -0.00121   0.00000  -0.00540  -0.00547   2.09611
    A9        2.09768  -0.00142   0.00000  -0.00193  -0.00200   2.09568
   A10        2.10257   0.00061   0.00000  -0.00316  -0.00314   2.09943
   A11        2.08634  -0.00035   0.00000   0.00155   0.00154   2.08787
   A12        2.09428  -0.00026   0.00000   0.00161   0.00160   2.09588
   A13        2.10257   0.00067   0.00000  -0.00193  -0.00195   2.10062
   A14        2.09428  -0.00023   0.00000   0.00116   0.00117   2.09545
   A15        2.08634  -0.00044   0.00000   0.00077   0.00078   2.08712
   A16        2.08393   0.00268   0.00000   0.00917   0.00923   2.09315
   A17        2.10159  -0.00106   0.00000  -0.00504  -0.00507   2.09652
   A18        2.09767  -0.00162   0.00000  -0.00413  -0.00416   2.09351
   A19        1.94732   0.01510   0.00000   0.01918   0.01905   1.96637
   A20        2.18598  -0.03793   0.00000   0.00508   0.00449   2.19046
   A21        1.94732   0.01510   0.00000   0.01600   0.01614   1.96346
   A22        1.76241   0.00499   0.00000  -0.03850  -0.03795   1.72446
   A23        1.81673   0.00158   0.00000   0.01983   0.01896   1.83569
   A24        1.76241   0.00499   0.00000  -0.02330  -0.02342   1.73899
   A25        1.94732   0.01647   0.00000   0.05005   0.04633   1.99365
   A26        2.06854  -0.03371   0.00000  -0.06765  -0.06714   2.00140
   A27        1.94732   0.01647   0.00000   0.04577   0.04351   1.99083
   A28        1.83139   0.00046   0.00000  -0.04279  -0.04246   1.78893
   A29        1.81673   0.00238   0.00000   0.04186   0.03947   1.85620
   A30        1.83139   0.00046   0.00000  -0.02091  -0.02014   1.81125
   A31        1.14122   0.03667   0.00000   0.00154   0.00034   1.14156
   A32        2.03013  -0.01193   0.00000  -0.01165  -0.01166   2.01847
   A33        2.03013  -0.01193   0.00000  -0.02334  -0.02292   2.00722
   A34        1.99447  -0.01160   0.00000   0.00490   0.00503   1.99950
   A35        1.99447  -0.01160   0.00000  -0.00744  -0.00712   1.98735
   A36        2.07463   0.01557   0.00000   0.02446   0.02398   2.09861
    D1        0.00000   0.00000   0.00000  -0.00005   0.00017   0.00017
    D2       -3.14159   0.00000   0.00000  -0.00467  -0.00423   3.13737
    D3        3.14159   0.00000   0.00000   0.00398   0.00433  -3.13727
    D4        0.00000   0.00000   0.00000  -0.00064  -0.00007  -0.00007
    D5        0.00000   0.00000   0.00000   0.00386   0.00365   0.00365
    D6        3.14159   0.00000   0.00000   0.00143   0.00135  -3.14025
    D7       -3.14159   0.00000   0.00000  -0.00056  -0.00070   3.14089
    D8        0.00000   0.00000   0.00000  -0.00298  -0.00301  -0.00301
    D9       -2.12960   0.01053   0.00000   0.05370   0.05421  -2.07539
   D10       -0.00001   0.00000   0.00000   0.02034   0.02094   0.02093
   D11        2.12958  -0.01053   0.00000   0.00672   0.00672   2.13630
   D12        1.01199   0.01053   0.00000   0.05793   0.05850   1.07049
   D13        3.14158   0.00000   0.00000   0.02457   0.02522  -3.11639
   D14       -1.01201  -0.01053   0.00000   0.01095   0.01100  -1.00102
   D15        0.00000   0.00000   0.00000  -0.00377  -0.00385  -0.00385
   D16        3.14159   0.00000   0.00000  -0.00140  -0.00136   3.14023
   D17        3.14159   0.00000   0.00000   0.00129   0.00088  -3.14072
   D18        0.00000   0.00000   0.00000   0.00366   0.00336   0.00336
   D19        2.12960  -0.01190   0.00000  -0.08633  -0.08824   2.04135
   D20        0.00001   0.00000   0.00000  -0.01657  -0.01631  -0.01630
   D21       -2.12958   0.01190   0.00000   0.02648   0.02791  -2.10167
   D22       -1.01199  -0.01190   0.00000  -0.09117  -0.09281  -1.10481
   D23       -3.14158   0.00000   0.00000  -0.02141  -0.02088   3.12072
   D24        1.01201   0.01190   0.00000   0.02163   0.02334   1.03535
   D25       -0.00001   0.00000   0.00000   0.00379   0.00373   0.00372
   D26        3.14159   0.00000   0.00000   0.00377   0.00380  -3.13780
   D27        3.14159   0.00000   0.00000   0.00142   0.00124  -3.14035
   D28        0.00000   0.00000   0.00000   0.00141   0.00132   0.00131
   D29        0.00001   0.00000   0.00000   0.00003   0.00011   0.00012
   D30       -3.14158   0.00000   0.00000   0.00000   0.00006  -3.14153
   D31       -3.14159   0.00000   0.00000   0.00005   0.00003  -3.14155
   D32        0.00001   0.00000   0.00000   0.00002  -0.00002  -0.00001
   D33        0.00000   0.00000   0.00000  -0.00386  -0.00381  -0.00382
   D34        3.14159   0.00000   0.00000  -0.00144  -0.00151   3.14008
   D35        3.14159   0.00000   0.00000  -0.00383  -0.00376   3.13782
   D36       -0.00001   0.00000   0.00000  -0.00141  -0.00146  -0.00146
   D37        0.00001   0.00000   0.00000  -0.02071  -0.02072  -0.02071
   D38        1.85242   0.00450   0.00000  -0.01053  -0.01086   1.84156
   D39       -1.85238  -0.00450   0.00000  -0.02043  -0.02034  -1.87272
   D40        2.20895  -0.00213   0.00000  -0.02854  -0.02845   2.18051
   D41       -2.22183   0.00236   0.00000  -0.01836  -0.01858  -2.24041
   D42        0.35656  -0.00663   0.00000  -0.02826  -0.02806   0.32850
   D43       -2.20894   0.00213   0.00000  -0.02385  -0.02346  -2.23240
   D44       -0.35654   0.00663   0.00000  -0.01367  -0.01360  -0.37013
   D45        2.22185  -0.00236   0.00000  -0.02357  -0.02307   2.19877
   D46       -0.00001   0.00000   0.00000   0.01890   0.01871   0.01869
   D47       -1.90537  -0.00182   0.00000   0.03335   0.03362  -1.87174
   D48        1.90535   0.00182   0.00000  -0.00490  -0.00505   1.90030
   D49       -2.18706   0.00148   0.00000   0.03644   0.03529  -2.15177
   D50        2.19077  -0.00034   0.00000   0.05089   0.05021   2.24098
   D51       -0.28169   0.00330   0.00000   0.01264   0.01153  -0.27016
   D52        2.18703  -0.00148   0.00000   0.01432   0.01466   2.20170
   D53        0.28168  -0.00330   0.00000   0.02878   0.02958   0.31126
   D54       -2.19079   0.00034   0.00000  -0.00947  -0.00909  -2.19988
         Item               Value     Threshold  Converged?
 Maximum Force            0.061668     0.000015     NO 
 RMS     Force            0.012928     0.000010     NO 
 Maximum Displacement     0.156379     0.000060     NO 
 RMS     Displacement     0.043637     0.000040     NO 
 Predicted change in Energy=-1.128623D-03
 GradGradGradGradGradGradGradGradGradGradGradGradGradGradGradGradGradGrad

                          Input orientation:                          
 ---------------------------------------------------------------------
 Center     Atomic      Atomic             Coordinates (Angstroms)
 Number     Number       Type             X           Y           Z
 ---------------------------------------------------------------------
      1          6           0       -0.245335   -1.183375    0.075301
      2          6           0       -1.442611   -1.195915    0.843264
      3          6           0       -2.376013   -0.169067    0.695484
      4          6           0       -2.127756    0.873805   -0.206393
      5          6           0       -0.953836    0.887672   -0.960272
      6          6           0       -0.012176   -0.140510   -0.823193
      7          6           0        0.710851   -2.297765    0.263840
      8          6           0       -1.619665   -2.330374    1.764412
      9          1           0       -3.293605   -0.176993    1.281057
     10          1           0       -2.856898    1.675460   -0.316526
     11          1           0       -0.764552    1.700428   -1.660400
     12          1           0        0.900900   -0.123801   -1.415762
     13          1           0        1.695539   -1.956392    0.629162
     14          1           0       -1.664288   -2.046802    2.826659
     15         16           0        0.402667   -4.151955    1.725455
     16          1           0        0.922409   -2.836977   -0.676857
     17          1           0       -2.519308   -2.933176    1.566484
     18          8           0        0.071996   -5.399730    1.088004
     19          8           0        1.222965   -4.137131    2.908697
 ---------------------------------------------------------------------
                    Distance matrix (angstroms):
                    1          2          3          4          5
     1  C    0.000000
     2  C    1.422461   0.000000
     3  C    2.439926   1.395528   0.000000
     4  C    2.802651   2.419700   1.400926   0.000000
     5  C    2.421492   2.798746   2.425039   1.395211   0.000000
     6  C    1.396145   2.436617   2.809790   2.425892   1.400954
     7  C    1.480440   2.487408   3.774440   4.282250   3.796925
     8  C    2.461196   1.472025   2.527038   3.795918   4.268847
     9  H    3.429082   2.157787   1.088547   2.162380   3.410511
    10  H    3.891880   3.404426   2.158169   1.089233   2.157931
    11  H    3.405666   3.888046   3.412038   2.157722   1.089302
    12  H    2.158661   3.427050   3.898406   3.410359   2.161156
    13  H    2.161321   3.236070   4.447074   4.829674   4.199308
    14  H    3.213862   2.169563   2.928199   4.236054   4.843215
    15  S    3.457655   3.594646   4.964404   5.949230   5.869503
    16  H    2.159575   3.255330   4.458773   4.826463   4.180147
    17  H    3.233634   2.168040   2.901633   4.217761   4.840876
    18  O    4.347863   4.475041   5.788494   6.772859   6.691726
    19  O    4.348415   4.474601   5.796248   6.785322   6.704925
                    6          7          8          9         10
     6  C    0.000000
     7  C    2.521539   0.000000
     8  C    3.751696   2.772018   0.000000
     9  H    3.898330   4.644143   2.769974   0.000000
    10  H    3.412756   5.371422   4.680572   2.484867   0.000000
    11  H    2.157785   4.676009   5.357977   4.309638   2.486872
    12  H    1.088635   2.753779   4.619060   4.986937   4.308911
    13  H    2.884970   1.104358   3.524093   5.336926   5.899946
    14  H    4.436760   3.503185   1.100352   2.922285   5.015692
    15  S    4.770680   2.381032   2.722040   5.446122   6.982350
    16  H    2.857586   1.104726   3.560700   5.355718   5.897041
    17  H    4.449185   3.540417   1.100865   2.877073   4.989912
    18  O    5.596352   3.272548   3.569341   6.216231   7.785207
    19  O    5.605850   3.262023   3.557289   6.223448   7.799587
                   11         12         13         14         15
    11  H    0.000000
    12  H    2.482215   0.000000
    13  H    4.966535   2.858593   0.000000
    14  H    5.914808   5.317542   4.015669   0.000000
    15  S    6.861253   5.132397   2.773783   3.149067   0.000000
    16  H    4.939761   2.812074   1.754664   4.426060   2.787544
    17  H    5.912887   5.337059   4.426919   1.762033   3.169958
    18  O    7.659359   5.898419   3.834450   4.156890   1.439663
    19  O    7.674892   5.908594   3.189863   3.565450   1.439851
                   16         17         18         19
    16  H    0.000000
    17  H    4.109411   0.000000
    18  O    3.225778   3.609389   0.000000
    19  O    3.825825   4.153992   2.496760   0.000000
 Symmetry turned off by external request.
 Stoichiometry    C8H8O2S
 Framework group  C1[X(C8H8O2S)]
 Deg. of freedom    51
 Full point group                 C1      NOp   1
 Rotational constants (GHZ):           2.4910485           0.4868298           0.4452692
 Standard basis: VSTO-6G (5D, 7F)
    57 basis functions,   348 primitive gaussians,    58 cartesian basis functions
    29 alpha electrons       29 beta electrons
       nuclear repulsion energy       323.0604902894 Hartrees.
 Integral buffers will be    131072 words long.
 Regular integral format.
 Two-electron integral symmetry is turned off.
 Do NDO integrals.
 One-electron integrals computed using PRISM.
 NBasis=    57 RedAO= F EigKep=  0.00D+00  NBF=    57
 NBsUse=    57 1.00D-04 EigRej=  0.00D+00 NBFU=    57
 Initial guess from the checkpoint file:  "C:\Users\al6323\OneDrive - Imperial College London\Desktop\TSR20251115\TS_Berny_opt+freq.chk"
 B after Tr=    -0.007287    0.008514   -0.004364
         Rot=    0.999988   -0.003477   -0.002437   -0.002615 Ang=  -0.57 deg.
 Keep J ints in memory in canonical form, NReq=1859402.
 Overlap will be assumed to be unity.
 Requested convergence on RMS density matrix=1.00D-08 within  32 cycles.
 Requested convergence on MAX density matrix=1.00D-06.
 Requested convergence on             energy=1.00D-06.
 No special actions if energy rises.
 SCF Done:  E(RPM6) =  0.110350743715     A.U. after   19 cycles
            NFock= 18  Conv=0.53D-08     -V/T= 1.0010
 QCSCF skips out because SCF is already converged.
 Calling FoFJK, ICntrl=      2127 FMM=F ISym2X=0 I1Cent= 0 IOpClX= 0 NMat=1 NMatS=1 NMatT=0.
 -------------------------------------------------------------------
 Center     Atomic                   Forces (Hartrees/Bohr)
 Number     Number              X              Y              Z
 -------------------------------------------------------------------
      1        6           0.000330128   -0.026114507    0.018037246
      2        6           0.016028847   -0.026219369    0.008272779
      3        6          -0.001040944    0.000047463    0.000126011
      4        6           0.000012277    0.000064270   -0.000069842
      5        6          -0.000108599    0.000177674   -0.000076297
      6        6           0.001327994   -0.000848463   -0.000721590
      7        6           0.034147241   -0.014735419   -0.010621254
      8        6          -0.024555731    0.000544843    0.015978137
      9        1           0.000340763    0.000043813   -0.000232677
     10        1           0.000223077   -0.000254944    0.000075539
     11        1           0.000005317   -0.000331118    0.000271993
     12        1          -0.000382643    0.000175393    0.000135978
     13        1          -0.010134439   -0.005432473    0.007713283
     14        1           0.014130440   -0.007817585   -0.007564979
     15       16          -0.032253992    0.062837343   -0.022819405
     16        1          -0.008415012   -0.003702320    0.009817067
     17        1           0.016160304   -0.004871070   -0.003608458
     18        8           0.002707621    0.019411420    0.001521633
     19        8          -0.008522648    0.007025048   -0.016235162
 -------------------------------------------------------------------
 Cartesian Forces:  Max     0.062837343 RMS     0.014296209

 GradGradGradGradGradGradGradGradGradGradGradGradGradGradGradGradGradGrad
 Berny optimization.
 FormGI is forming the generalized inverse of G from B-inverse, IUseBI=4.
 Internal  Forces:  Max     0.055994479 RMS     0.010752714
 Search for a saddle point.
 Step number   2 out of a maximum of  114
 All quantities printed in internal units (Hartrees-Bohrs-Radians)
 Swapping is turned off.
 Update second derivatives using D2CorX and points    1    2
 ITU=  0  0
     Eigenvalues ---   -0.06356  -0.01396  -0.00407   0.00168   0.00606
     Eigenvalues ---    0.01057   0.01158   0.01230   0.01392   0.01613
     Eigenvalues ---    0.01784   0.02363   0.02385   0.02710   0.02723
     Eigenvalues ---    0.02767   0.02795   0.02990   0.03016   0.05157
     Eigenvalues ---    0.05760   0.06044   0.07199   0.07413   0.08831
     Eigenvalues ---    0.10761   0.10934   0.10973   0.12010   0.13788
     Eigenvalues ---    0.14885   0.15332   0.15594   0.23742   0.23851
     Eigenvalues ---    0.24538   0.24866   0.25056   0.26388   0.26396
     Eigenvalues ---    0.27675   0.28098   0.34589   0.35067   0.45190
     Eigenvalues ---    0.47363   0.48033   0.51669   0.53612   0.54137
     Eigenvalues ---    0.68773
 Eigenvectors required to have negative eigenvalues:
                          R17       R14       A31       A22       A24
   1                    0.71434   0.62423  -0.15896  -0.09622  -0.09579
                          A20       A28       A30       D22       D19
   1                    0.07855  -0.07216  -0.06772  -0.04602  -0.04562
 RFO step:  Lambda0=4.783955050D-02 Lambda=-4.70945806D-02.
 Linear search not attempted -- option 19 set.
 Maximum step size (   0.300) exceeded in Quadratic search.
    -- Step size scaled by   0.287
 Iteration  1 RMS(Cart)=  0.03915725 RMS(Int)=  0.00512960
 Iteration  2 RMS(Cart)=  0.00740316 RMS(Int)=  0.00069524
 Iteration  3 RMS(Cart)=  0.00001827 RMS(Int)=  0.00069514
 Iteration  4 RMS(Cart)=  0.00000001 RMS(Int)=  0.00069514
 Variable       Old X    -DE/DX   Delta X   Delta X   Delta X     New X
                                 (Linear)    (Quad)   (Total)
    R1        2.68806   0.01068   0.00000   0.00452   0.00494   2.69300
    R2        2.63833   0.00059   0.00000   0.00616   0.00617   2.64450
    R3        2.79763  -0.01854   0.00000  -0.01590  -0.01593   2.78170
    R4        2.63716   0.00106   0.00000   0.00467   0.00471   2.64187
    R5        2.78172  -0.02002   0.00000  -0.02917  -0.02879   2.75294
    R6        2.64737  -0.00094   0.00000  -0.00309  -0.00310   2.64427
    R7        2.05705  -0.00041   0.00000   0.00038   0.00038   2.05743
    R8        2.63657  -0.00164   0.00000  -0.00031  -0.00036   2.63621
    R9        2.05835  -0.00034   0.00000  -0.00034  -0.00034   2.05802
   R10        2.64742  -0.00089   0.00000  -0.00306  -0.00310   2.64432
   R11        2.05848  -0.00042   0.00000  -0.00012  -0.00012   2.05836
   R12        2.05722  -0.00039   0.00000   0.00057   0.00057   2.05780
   R13        2.08693  -0.00816   0.00000  -0.00925  -0.00925   2.07769
   R14        4.49950  -0.05599   0.00000  -0.04543  -0.04579   4.45370
   R15        2.08763  -0.00816   0.00000  -0.00819  -0.00819   2.07944
   R16        2.07936  -0.00989   0.00000  -0.01612  -0.01612   2.06324
   R17        5.14391  -0.04750   0.00000   0.25481   0.25475   5.39866
   R18        2.08033  -0.00989   0.00000  -0.01452  -0.01452   2.06582
   R19        2.72057  -0.01812   0.00000  -0.01001  -0.01001   2.71056
   R20        2.72092  -0.01812   0.00000  -0.00963  -0.00963   2.71130
    A1        2.08816  -0.00258   0.00000  -0.00886  -0.00885   2.07931
    A2        2.05809   0.01532   0.00000   0.04136   0.04155   2.09965
    A3        2.13692  -0.01274   0.00000  -0.03251  -0.03273   2.10419
    A4        2.09360  -0.00283   0.00000  -0.00220  -0.00239   2.09121
    A5        2.03295   0.01353   0.00000   0.01782   0.01844   2.05138
    A6        2.15663  -0.01070   0.00000  -0.01564  -0.01608   2.14055
    A7        2.09139   0.00233   0.00000   0.00705   0.00716   2.09855
    A8        2.09611  -0.00112   0.00000  -0.00539  -0.00544   2.09067
    A9        2.09568  -0.00121   0.00000  -0.00167  -0.00173   2.09395
   A10        2.09943   0.00035   0.00000  -0.00334  -0.00332   2.09611
   A11        2.08787  -0.00021   0.00000   0.00182   0.00181   2.08969
   A12        2.09588  -0.00014   0.00000   0.00152   0.00151   2.09739
   A13        2.10062   0.00039   0.00000  -0.00192  -0.00193   2.09869
   A14        2.09545  -0.00012   0.00000   0.00093   0.00094   2.09638
   A15        2.08712  -0.00027   0.00000   0.00099   0.00100   2.08812
   A16        2.09315   0.00234   0.00000   0.00924   0.00929   2.10244
   A17        2.09652  -0.00096   0.00000  -0.00532  -0.00534   2.09117
   A18        2.09351  -0.00138   0.00000  -0.00393  -0.00395   2.08956
   A19        1.96637   0.01145   0.00000   0.01697   0.01686   1.98323
   A20        2.19046  -0.03081   0.00000   0.00894   0.00843   2.19890
   A21        1.96346   0.01169   0.00000   0.01198   0.01213   1.97560
   A22        1.72446   0.00399   0.00000  -0.03902  -0.03846   1.68600
   A23        1.83569   0.00176   0.00000   0.02173   0.02090   1.85659
   A24        1.73899   0.00416   0.00000  -0.02370  -0.02386   1.71513
   A25        1.99365   0.01233   0.00000   0.04485   0.04053   2.03418
   A26        2.00140  -0.02779   0.00000  -0.06681  -0.06630   1.93510
   A27        1.99083   0.01246   0.00000   0.03896   0.03658   2.02740
   A28        1.78893  -0.00011   0.00000  -0.04832  -0.04792   1.74100
   A29        1.85620   0.00207   0.00000   0.04215   0.03967   1.89587
   A30        1.81125   0.00023   0.00000  -0.01814  -0.01740   1.79384
   A31        1.14156   0.02975   0.00000  -0.00197  -0.00316   1.13839
   A32        2.01847  -0.01017   0.00000  -0.01136  -0.01141   2.00705
   A33        2.00722  -0.01008   0.00000  -0.02421  -0.02374   1.98348
   A34        1.99950  -0.00906   0.00000   0.00720   0.00725   2.00675
   A35        1.98735  -0.00893   0.00000  -0.00774  -0.00750   1.97985
   A36        2.09861   0.01290   0.00000   0.02417   0.02366   2.12227
    D1        0.00017  -0.00002   0.00000   0.00023   0.00044   0.00061
    D2        3.13737  -0.00006   0.00000  -0.00523  -0.00477   3.13259
    D3       -3.13727  -0.00001   0.00000   0.00532   0.00566  -3.13161
    D4       -0.00007  -0.00006   0.00000  -0.00013   0.00045   0.00038
    D5        0.00365   0.00002   0.00000   0.00425   0.00404   0.00769
    D6       -3.14025  -0.00003   0.00000   0.00131   0.00121  -3.13904
    D7        3.14089   0.00008   0.00000  -0.00090  -0.00101   3.13988
    D8       -0.00301   0.00004   0.00000  -0.00384  -0.00384  -0.00685
    D9       -2.07539   0.00949   0.00000   0.05657   0.05704  -2.01834
   D10        0.02093   0.00015   0.00000   0.02334   0.02400   0.04492
   D11        2.13630  -0.00902   0.00000   0.00821   0.00827   2.14457
   D12        1.07049   0.00947   0.00000   0.06174   0.06228   1.13276
   D13       -3.11639   0.00013   0.00000   0.02852   0.02923  -3.08716
   D14       -1.00102  -0.00904   0.00000   0.01339   0.01350  -0.98751
   D15       -0.00385   0.00001   0.00000  -0.00453  -0.00459  -0.00844
   D16        3.14023   0.00002   0.00000  -0.00138  -0.00134   3.13889
   D17       -3.14072  -0.00001   0.00000   0.00124   0.00080  -3.13991
   D18        0.00336   0.00000   0.00000   0.00439   0.00406   0.00741
   D19        2.04135  -0.01185   0.00000  -0.09721  -0.09903   1.94233
   D20       -0.01630  -0.00014   0.00000  -0.01653  -0.01627  -0.03257
   D21       -2.10167   0.01130   0.00000   0.02910   0.03033  -2.07134
   D22       -1.10481  -0.01187   0.00000  -0.10284  -0.10436  -1.20916
   D23        3.12072  -0.00016   0.00000  -0.02216  -0.02160   3.09912
   D24        1.03535   0.01128   0.00000   0.02347   0.02500   1.06035
   D25        0.00372   0.00001   0.00000   0.00437   0.00430   0.00802
   D26       -3.13780   0.00002   0.00000   0.00462   0.00464  -3.13315
   D27       -3.14035   0.00000   0.00000   0.00122   0.00103  -3.13932
   D28        0.00131   0.00001   0.00000   0.00147   0.00138   0.00270
   D29        0.00012  -0.00001   0.00000   0.00012   0.00020   0.00031
   D30       -3.14153   0.00002   0.00000   0.00025   0.00031  -3.14122
   D31       -3.14155  -0.00002   0.00000  -0.00012  -0.00015   3.14148
   D32       -0.00001   0.00001   0.00000   0.00000  -0.00004  -0.00005
   D33       -0.00382  -0.00001   0.00000  -0.00446  -0.00440  -0.00822
   D34        3.14008   0.00003   0.00000  -0.00152  -0.00158   3.13850
   D35        3.13782  -0.00003   0.00000  -0.00458  -0.00452   3.13331
   D36       -0.00146   0.00001   0.00000  -0.00165  -0.00169  -0.00315
   D37       -0.02071  -0.00012   0.00000  -0.02217  -0.02214  -0.04285
   D38        1.84156   0.00361   0.00000  -0.01075  -0.01105   1.83051
   D39       -1.87272  -0.00376   0.00000  -0.02080  -0.02070  -1.89342
   D40        2.18051  -0.00184   0.00000  -0.03058  -0.03048   2.15002
   D41       -2.24041   0.00189   0.00000  -0.01916  -0.01939  -2.25980
   D42        0.32850  -0.00548   0.00000  -0.02921  -0.02904   0.29945
   D43       -2.23240   0.00178   0.00000  -0.02193  -0.02149  -2.25389
   D44       -0.37013   0.00551   0.00000  -0.01051  -0.01040  -0.38054
   D45        2.19877  -0.00186   0.00000  -0.02056  -0.02005   2.17872
   D46        0.01869   0.00027   0.00000   0.01946   0.01929   0.03798
   D47       -1.87174  -0.00086   0.00000   0.03554   0.03591  -1.83583
   D48        1.90030   0.00121   0.00000  -0.00626  -0.00631   1.89399
   D49       -2.15177   0.00119   0.00000   0.03675   0.03548  -2.11629
   D50        2.24098   0.00005   0.00000   0.05283   0.05210   2.29308
   D51       -0.27016   0.00212   0.00000   0.01104   0.00988  -0.26029
   D52        2.20170  -0.00109   0.00000   0.01383   0.01402   2.21571
   D53        0.31126  -0.00223   0.00000   0.02992   0.03064   0.34190
   D54       -2.19988  -0.00015   0.00000  -0.01188  -0.01158  -2.21146
         Item               Value     Threshold  Converged?
 Maximum Force            0.055994     0.000015     NO 
 RMS     Force            0.010753     0.000010     NO 
 Maximum Displacement     0.167642     0.000060     NO 
 RMS     Displacement     0.044728     0.000040     NO 
 Predicted change in Energy=-1.536179D-03
 GradGradGradGradGradGradGradGradGradGradGradGradGradGradGradGradGradGrad

                          Input orientation:                          
 ---------------------------------------------------------------------
 Center     Atomic      Atomic             Coordinates (Angstroms)
 Number     Number       Type             X           Y           Z
 ---------------------------------------------------------------------
      1          6           0       -0.262769   -1.200554    0.109179
      2          6           0       -1.470440   -1.187313    0.865614
      3          6           0       -2.391529   -0.150978    0.686555
      4          6           0       -2.126872    0.877407   -0.224699
      5          6           0       -0.945460    0.867954   -0.966495
      6          6           0       -0.019585   -0.168633   -0.804248
      7          6           0        0.708682   -2.293209    0.280077
      8          6           0       -1.693273   -2.284373    1.797841
      9          1           0       -3.315180   -0.142710    1.262898
     10          1           0       -2.846571    1.684812   -0.351864
     11          1           0       -0.739023    1.668530   -1.675652
     12          1           0        0.898532   -0.169054   -1.389781
     13          1           0        1.674803   -1.964040    0.688830
     14          1           0       -1.662172   -2.035730    2.860519
     15         16           0        0.448253   -4.171554    1.679540
     16          1           0        0.933111   -2.824114   -0.657276
     17          1           0       -2.573291   -2.905166    1.610135
     18          8           0        0.139617   -5.396061    0.999291
     19          8           0        1.294452   -4.147808    2.837949
 ---------------------------------------------------------------------
                    Distance matrix (angstroms):
                    1          2          3          4          5
     1  C    0.000000
     2  C    1.425075   0.000000
     3  C    2.442660   1.398019   0.000000
     4  C    2.811454   2.425439   1.399286   0.000000
     5  C    2.429376   2.802918   2.421138   1.395021   0.000000
     6  C    1.399410   2.435391   2.801592   2.422960   1.399315
     7  C    1.472012   2.512854   3.790209   4.283453   3.779296
     8  C    2.464262   1.456792   2.504774   3.778298   4.258867
     9  H    3.430352   2.156871   1.088748   2.160014   3.406935
    10  H    3.900504   3.409558   2.157661   1.089055   2.158530
    11  H    3.412342   3.892151   3.409018   2.158069   1.089239
    12  H    2.158586   3.425739   3.890501   3.406694   2.157513
    13  H    2.161734   3.244551   4.452219   4.833331   4.198341
    14  H    3.197768   2.176285   2.968227   4.268593   4.857066
    15  S    3.434884   3.639994   5.021495   5.979080   5.860083
    16  H    2.157205   3.282586   4.472669   4.822020   4.154036
    17  H    3.239920   2.172926   2.910600   4.227738   4.850288
    18  O    4.307725   4.508183   5.832272   6.781705   6.654291
    19  O    4.307834   4.505471   5.847188   6.807207   6.681981
                    6          7          8          9         10
     6  C    0.000000
     7  C    2.493984   0.000000
     8  C    3.748127   2.841316   0.000000
     9  H    3.890335   4.667124   2.739246   0.000000
    10  H    3.410537   5.372506   4.658944   2.483322   0.000000
    11  H    2.156873   4.649311   5.348008   4.307232   2.488863
    12  H    1.088939   2.708598   4.620927   4.979233   4.305797
    13  H    2.885085   1.099464   3.560401   5.342914   5.902541
    14  H    4.428844   3.513677   1.091821   2.977978   5.056148
    15  S    4.734073   2.356799   2.856848   5.528888   7.019935
    16  H    2.825033   1.100390   3.635494   5.378194   5.891493
    17  H    4.454129   3.593730   1.093182   2.881342   4.999202
    18  O    5.532097   3.235552   3.698617   6.293076   7.802672
    19  O    5.552128   3.213312   3.671610   6.306370   7.832142
                   11         12         13         14         15
    11  H    0.000000
    12  H    2.477906   0.000000
    13  H    4.961138   2.853979   0.000000
    14  H    5.928793   5.301578   3.982056   0.000000
    15  S    6.839116   5.063940   2.712757   3.226507   0.000000
    16  H    4.900711   2.754470   1.761203   4.442063   2.740691
    17  H    5.922805   5.342224   4.447564   1.774687   3.276932
    18  O    7.604983   5.797001   3.772525   4.242927   1.434368
    19  O    7.637892   5.819016   3.087430   3.633595   1.434757
                   16         17         18         19
    16  H    0.000000
    17  H    4.176431   0.000000
    18  O    3.160499   3.733304   0.000000
    19  O    3.754907   4.243952   2.504484   0.000000
 Symmetry turned off by external request.
 Stoichiometry    C8H8O2S
 Framework group  C1[X(C8H8O2S)]
 Deg. of freedom    51
 Full point group                 C1      NOp   1
 Rotational constants (GHZ):           2.4555658           0.4862492           0.4439610
 Standard basis: VSTO-6G (5D, 7F)
    57 basis functions,   348 primitive gaussians,    58 cartesian basis functions
    29 alpha electrons       29 beta electrons
       nuclear repulsion energy       322.8656959193 Hartrees.
 Integral buffers will be    131072 words long.
 Regular integral format.
 Two-electron integral symmetry is turned off.
 Do NDO integrals.
 One-electron integrals computed using PRISM.
 NBasis=    57 RedAO= F EigKep=  0.00D+00  NBF=    57
 NBsUse=    57 1.00D-04 EigRej=  0.00D+00 NBFU=    57
 Initial guess from the checkpoint file:  "C:\Users\al6323\OneDrive - Imperial College London\Desktop\TSR20251115\TS_Berny_opt+freq.chk"
 B after Tr=    -0.007567    0.010043   -0.004047
         Rot=    0.999987   -0.003669   -0.002391   -0.002720 Ang=  -0.59 deg.
 Keep J ints in memory in canonical form, NReq=1859402.
 Overlap will be assumed to be unity.
 Requested convergence on RMS density matrix=1.00D-08 within  32 cycles.
 Requested convergence on MAX density matrix=1.00D-06.
 Requested convergence on             energy=1.00D-06.
 No special actions if energy rises.
 SCF Done:  E(RPM6) =  0.108957389947     A.U. after   20 cycles
            NFock= 19  Conv=0.67D-08     -V/T= 1.0010
 QCSCF skips out because SCF is already converged.
 Calling FoFJK, ICntrl=      2127 FMM=F ISym2X=0 I1Cent= 0 IOpClX= 0 NMat=1 NMatS=1 NMatT=0.
 -------------------------------------------------------------------
 Center     Atomic                   Forces (Hartrees/Bohr)
 Number     Number              X              Y              Z
 -------------------------------------------------------------------
      1        6          -0.000122304   -0.020798638    0.014863777
      2        6           0.014693255   -0.020650380    0.005534453
      3        6          -0.001312509    0.000068608   -0.000772025
      4        6          -0.000425232   -0.000081073    0.000278997
      5        6           0.000372570    0.000025075   -0.000316946
      6        6           0.000428512   -0.000536347   -0.001340495
      7        6           0.028835869   -0.016174721   -0.005884091
      8        6          -0.020756781    0.001707573    0.013286373
      9        1           0.000237374    0.000032864   -0.000116786
     10        1           0.000194193   -0.000152745    0.000103218
     11        1           0.000024466   -0.000189225    0.000251281
     12        1          -0.000226338    0.000166230    0.000089905
     13        1          -0.008428536   -0.004159200    0.007033612
     14        1           0.013097318   -0.006914104   -0.005998883
     15       16          -0.027804115    0.054543939   -0.019043612
     16        1          -0.007143903   -0.003123063    0.007135556
     17        1           0.012754104   -0.004497257   -0.003718949
     18        8           0.001689711    0.014636811    0.000480066
     19        8          -0.006107654    0.006095653   -0.011865449
 -------------------------------------------------------------------
 Cartesian Forces:  Max     0.054543939 RMS     0.012077866

 GradGradGradGradGradGradGradGradGradGradGradGradGradGradGradGradGradGrad
 Berny optimization.
 FormGI is forming the generalized inverse of G from B-inverse, IUseBI=4.
 Internal  Forces:  Max     0.049646860 RMS     0.008793217
 Search for a saddle point.
 Step number   3 out of a maximum of  114
 All quantities printed in internal units (Hartrees-Bohrs-Radians)
 Swapping is turned off.
 Update second derivatives using D2CorX and points    2    3
 ITU=  0  0  0
     Eigenvalues ---   -0.06303  -0.01068  -0.00532   0.00169   0.00606
     Eigenvalues ---    0.01062   0.01158   0.01230   0.01388   0.01611
     Eigenvalues ---    0.01782   0.02362   0.02379   0.02710   0.02723
     Eigenvalues ---    0.02781   0.02794   0.02989   0.03017   0.05135
     Eigenvalues ---    0.05688   0.06045   0.07185   0.07390   0.08822
     Eigenvalues ---    0.10760   0.10934   0.10973   0.11988   0.13716
     Eigenvalues ---    0.14882   0.15314   0.15593   0.23740   0.23851
     Eigenvalues ---    0.24533   0.24869   0.25064   0.26388   0.26396
     Eigenvalues ---    0.27675   0.28098   0.34614   0.35030   0.45190
     Eigenvalues ---    0.47337   0.48054   0.51667   0.53613   0.54135
     Eigenvalues ---    0.68775
 Eigenvectors required to have negative eigenvalues:
                          R17       R14       A31       A22       A24
   1                    0.69397   0.64661  -0.15766  -0.09793  -0.09611
                          A28       A20       A30       D22       D19
   1                   -0.07577   0.07553  -0.06296  -0.05247  -0.05122
 RFO step:  Lambda0=3.781120670D-02 Lambda=-3.64962773D-02.
 Linear search not attempted -- option 19 set.
 Maximum step size (   0.300) exceeded in Quadratic search.
    -- Step size scaled by   0.307
 Iteration  1 RMS(Cart)=  0.03995622 RMS(Int)=  0.00530742
 Iteration  2 RMS(Cart)=  0.00759463 RMS(Int)=  0.00073532
 Iteration  3 RMS(Cart)=  0.00001944 RMS(Int)=  0.00073522
 Iteration  4 RMS(Cart)=  0.00000001 RMS(Int)=  0.00073522
 Variable       Old X    -DE/DX   Delta X   Delta X   Delta X     New X
                                 (Linear)    (Quad)   (Total)
    R1        2.69300   0.00794   0.00000   0.00302   0.00339   2.69639
    R2        2.64450   0.00105   0.00000   0.00777   0.00778   2.65228
    R3        2.78170  -0.01392   0.00000  -0.01426  -0.01424   2.76746
    R4        2.64187   0.00130   0.00000   0.00607   0.00610   2.64797
    R5        2.75294  -0.01389   0.00000  -0.02233  -0.02203   2.73091
    R6        2.64427  -0.00095   0.00000  -0.00443  -0.00444   2.63983
    R7        2.05743  -0.00026   0.00000   0.00058   0.00058   2.05801
    R8        2.63621  -0.00097   0.00000   0.00129   0.00125   2.63746
    R9        2.05802  -0.00025   0.00000  -0.00030  -0.00030   2.05772
   R10        2.64432  -0.00086   0.00000  -0.00435  -0.00439   2.63994
   R11        2.05836  -0.00030   0.00000   0.00002   0.00002   2.05838
   R12        2.05780  -0.00024   0.00000   0.00082   0.00082   2.05861
   R13        2.07769  -0.00604   0.00000  -0.00819  -0.00819   2.06949
   R14        4.45370  -0.04965   0.00000  -0.04356  -0.04383   4.40987
   R15        2.07944  -0.00603   0.00000  -0.00624  -0.00624   2.07319
   R16        2.06324  -0.00704   0.00000  -0.01342  -0.01342   2.04982
   R17        5.39866  -0.03851   0.00000   0.25625   0.25615   5.65481
   R18        2.06582  -0.00707   0.00000  -0.01045  -0.01045   2.05537
   R19        2.71056  -0.01309   0.00000  -0.00740  -0.00740   2.70316
   R20        2.71130  -0.01308   0.00000  -0.00689  -0.00689   2.70440
    A1        2.07931  -0.00211   0.00000  -0.00943  -0.00942   2.06989
    A2        2.09965   0.01208   0.00000   0.03808   0.03822   2.13787
    A3        2.10419  -0.00998   0.00000  -0.02871  -0.02889   2.07529
    A4        2.09121  -0.00227   0.00000  -0.00152  -0.00167   2.08955
    A5        2.05138   0.01106   0.00000   0.01969   0.02013   2.07151
    A6        2.14055  -0.00880   0.00000  -0.01824  -0.01856   2.12199
    A7        2.09855   0.00200   0.00000   0.00680   0.00688   2.10543
    A8        2.09067  -0.00098   0.00000  -0.00549  -0.00553   2.08515
    A9        2.09395  -0.00101   0.00000  -0.00134  -0.00139   2.09256
   A10        2.09611   0.00019   0.00000  -0.00351  -0.00350   2.09261
   A11        2.08969  -0.00011   0.00000   0.00241   0.00240   2.09209
   A12        2.09739  -0.00007   0.00000   0.00110   0.00109   2.09848
   A13        2.09869   0.00021   0.00000  -0.00186  -0.00187   2.09682
   A14        2.09638  -0.00006   0.00000   0.00035   0.00036   2.09674
   A15        2.08812  -0.00015   0.00000   0.00151   0.00151   2.08963
   A16        2.10244   0.00198   0.00000   0.00943   0.00947   2.11191
   A17        2.09117  -0.00082   0.00000  -0.00586  -0.00588   2.08529
   A18        2.08956  -0.00116   0.00000  -0.00359  -0.00361   2.08595
   A19        1.98323   0.00836   0.00000   0.01714   0.01704   2.00027
   A20        2.19890  -0.02430   0.00000   0.01220   0.01177   2.21067
   A21        1.97560   0.00859   0.00000   0.00704   0.00720   1.98280
   A22        1.68600   0.00312   0.00000  -0.04096  -0.04035   1.64565
   A23        1.85659   0.00185   0.00000   0.02352   0.02268   1.87927
   A24        1.71513   0.00348   0.00000  -0.02315  -0.02337   1.69176
   A25        2.03418   0.00888   0.00000   0.04117   0.03598   2.07016
   A26        1.93510  -0.02254   0.00000  -0.06528  -0.06477   1.87033
   A27        2.02740   0.00882   0.00000   0.02873   0.02658   2.05399
   A28        1.74100  -0.00068   0.00000  -0.05966  -0.05912   1.68188
   A29        1.89587   0.00175   0.00000   0.04161   0.03918   1.93505
   A30        1.79384   0.00038   0.00000  -0.00966  -0.00910   1.78474
   A31        1.13839   0.02365   0.00000  -0.00630  -0.00745   1.13095
   A32        2.00705  -0.00856   0.00000  -0.01006  -0.01022   1.99683
   A33        1.98348  -0.00845   0.00000  -0.02738  -0.02684   1.95663
   A34        2.00675  -0.00688   0.00000   0.01097   0.01090   2.01765
   A35        1.97985  -0.00681   0.00000  -0.01127  -0.01117   1.96869
   A36        2.12227   0.01058   0.00000   0.02569   0.02518   2.14744
    D1        0.00061  -0.00004   0.00000   0.00020   0.00040   0.00101
    D2        3.13259  -0.00015   0.00000  -0.00804  -0.00756   3.12503
    D3       -3.13161   0.00001   0.00000   0.00830   0.00864  -3.12297
    D4        0.00038  -0.00011   0.00000   0.00006   0.00068   0.00106
    D5        0.00769   0.00007   0.00000   0.00601   0.00577   0.01347
    D6       -3.13904  -0.00005   0.00000   0.00137   0.00125  -3.13779
    D7        3.13988   0.00015   0.00000  -0.00174  -0.00180   3.13808
    D8       -0.00685   0.00003   0.00000  -0.00638  -0.00632  -0.01317
    D9       -2.01834   0.00837   0.00000   0.06200   0.06248  -1.95586
   D10        0.04492   0.00043   0.00000   0.02868   0.02944   0.07436
   D11        2.14457  -0.00720   0.00000   0.01192   0.01205   2.15662
   D12        1.13276   0.00838   0.00000   0.07011   0.07064   1.20340
   D13       -3.08716   0.00044   0.00000   0.03678   0.03759  -3.04956
   D14       -0.98751  -0.00720   0.00000   0.02002   0.02021  -0.96731
   D15       -0.00844  -0.00002   0.00000  -0.00624  -0.00627  -0.01471
   D16        3.13889   0.00004   0.00000  -0.00139  -0.00132   3.13757
   D17       -3.13991  -0.00002   0.00000   0.00221   0.00170  -3.13821
   D18        0.00741   0.00005   0.00000   0.00706   0.00666   0.01407
   D19        1.94233  -0.01155   0.00000  -0.11436  -0.11611   1.82622
   D20       -0.03257  -0.00033   0.00000  -0.01760  -0.01735  -0.04992
   D21       -2.07134   0.00996   0.00000   0.02409   0.02491  -2.04643
   D22       -1.20916  -0.01163   0.00000  -0.12274  -0.12412  -1.33328
   D23        3.09912  -0.00040   0.00000  -0.02598  -0.02536   3.07376
   D24        1.06035   0.00989   0.00000   0.01570   0.01690   1.07725
   D25        0.00802   0.00006   0.00000   0.00612   0.00601   0.01403
[...]
 7,-0.02108092,0.04263545,-0.04680016,-0.01366525,0.02049316,-0.0222509
 8,0.00681921,-0.03966162,0.06004322,-0.21319208,0.01025879,0.05955928,
 0.68864165,0.02316362,-0.02380644,0.03050007,0.00258782,-0.00883100,0.
 00627591,-0.01868082,0.00610105,0.00902157,-0.02559672,-0.06952386,0.0
 1635663,-0.18772938,0.34207341,-0.02044952,0.02272554,-0.01760789,0.00
 141356,-0.00344174,-0.00034055,0.02720643,0.02087014,-0.03865031,0.111
 72689,-0.00197041,-0.12168257,0.00000263,-0.20958267,0.45227119,-0.048
 41967,-0.02235489,0.02399612,-0.00083344,-0.01932468,0.03365603,-0.011
 99410,0.01022018,-0.00970633,-0.06901246,0.00860629,0.02481170,-0.3539
 1545,0.18835954,-0.13037885,0.67761030,-0.01359053,-0.11144119,0.08234
 040,-0.01816397,0.01033314,0.00204463,0.00795773,-0.01268545,0.0150972
 8,0.03070122,0.01237168,-0.02430790,0.15683437,-0.16838389,0.08207934,
 -0.20080635,0.34883831,0.02233948,0.07627114,-0.20751447,0.02559683,0.
 00178765,-0.01263774,-0.00659070,0.01392994,-0.01863708,-0.00791126,-0
 .01431584,0.03091081,-0.08079569,0.06565840,-0.11601334,0.01552626,-0.
 21236816,0.45133961,-0.30218391,0.19586306,-0.07633854,-0.04914318,0.0
 1518837,0.01536633,-0.00345111,0.00143653,-0.00057139,-0.00270390,-0.0
 0120933,0.00286776,0.00648756,-0.00154087,-0.00023749,-0.00818086,0.01
 865651,-0.02253131,0.56436321,0.11367367,-0.15173311,0.04902046,0.0431
 2305,0.03629958,-0.06366181,0.01169609,-0.00904674,0.01667689,0.013887
 46,0.00778590,-0.01766749,-0.02647119,0.00707912,0.00567779,0.03195080
 ,-0.03339838,0.04941717,-0.25717825,0.21324273,-0.06351254,0.05230645,
 -0.08866449,0.00608452,-0.01162383,0.01893578,-0.00000876,0.00346705,-
 0.00283801,-0.00267829,-0.00167731,0.00383651,0.00688271,0.00094874,-0
 .00299324,-0.02538128,0.03125760,-0.02280027,0.02821262,-0.09622460,0.
 42622454,0.00388222,-0.02182917,0.02753546,-0.07323822,-0.04069035,0.0
 4197191,-0.00431531,0.02286410,-0.02426242,-0.00527585,0.00026182,0.00
 338340,0.00443131,-0.00119723,-0.00044027,-0.00382681,0.00292706,-0.00
 110324,-0.00795382,0.01526604,0.00523730,0.42504431,-0.08130462,0.0262
 0445,0.01372769,-0.00412417,-0.17431394,0.13541840,0.03242397,-0.03312
 550,0.04916984,0.01656471,0.00987203,-0.02037094,-0.02268917,0.0055179
 4,0.00435195,0.00974508,-0.00907380,0.01780155,0.00137706,-0.06812997,
 0.01215539,0.05526008,0.25206620,0.03359569,0.01423613,-0.02399463,0.0
 2448525,0.20813717,-0.29503113,-0.01907806,0.02926028,-0.02693947,-0.0
 0461863,-0.00127114,0.00597711,0.00445303,-0.00098512,-0.00103020,0.00
 007791,0.00256420,-0.00243591,0.00032916,0.00351678,-0.00367826,-0.013
 66705,-0.29148197,0.52672029,-0.00113882,0.00149989,-0.00115043,-0.034
 90634,0.00900723,0.00659524,-0.16866424,-0.01203046,0.08082238,-0.0049
 7397,-0.00555969,0.01403247,0.00079171,0.00149502,0.00119424,0.0004705
 5,0.00004412,-0.00018609,-0.00023629,-0.00006465,0.00036899,-0.0012811
 1,0.00061949,-0.00012391,0.20932162,0.00106162,0.00037080,0.00207480,0
 .01633633,0.00344088,-0.00303249,-0.01175895,-0.03962706,0.00293466,-0
 .01331927,-0.00017926,0.01617520,0.00202203,0.00415324,0.00475228,-0.0
 0000685,0.00016472,-0.00031231,0.00032039,-0.00018416,-0.00035221,0.00
 043531,-0.00114501,0.00020368,0.00574756,0.03550911,-0.00114937,0.0013
 4225,0.00054717,-0.00363467,0.00147959,0.00631442,0.08089679,0.0027034
 3,-0.08549666,0.02487671,0.01229855,-0.02455808,0.00131321,0.00478344,
 0.00015327,-0.00031051,0.00010099,-0.00006829,-0.00024708,-0.00025564,
 0.00005475,-0.00067604,-0.00019899,-0.00043573,-0.10067529,-0.02207309
 ,0.10509820,0.00038592,-0.00008816,0.00010578,0.00006630,0.00151193,0.
 00151858,0.00009201,0.00746603,-0.00804373,-0.14968384,0.07145924,-0.0
 5291221,-0.03517773,0.01367943,0.00073828,-0.00171564,0.00000435,0.001
 84854,0.00019587,0.00008153,-0.00017370,0.00004425,-0.00018671,0.00020
 365,0.00077895,-0.00081538,-0.00032279,0.18580917,-0.00054565,0.000137
 20,0.00010228,0.00207800,0.00456453,0.00426746,0.01489694,-0.01166001,
 0.01854612,0.07163803,-0.08596123,0.02943488,0.00609474,0.00441922,0.0
 0046706,0.00012305,0.00123747,0.00110627,-0.00010048,-0.00057810,-0.00
 009215,-0.00002066,-0.00057869,-0.00007280,-0.00074947,-0.00163113,-0.
 00058612,-0.09305098,0.08978324,0.00002874,-0.00003833,0.00014739,0.00
 138438,0.00486486,0.00030247,-0.01941835,0.02247600,-0.01796172,-0.053
 03001,0.02928967,-0.05949856,0.01204129,-0.00331293,0.00578684,0.00182
 429,0.00104097,-0.00059622,0.00004285,-0.00014712,-0.00012404,-0.00051
 085,-0.00007192,-0.00025543,-0.00043669,-0.00058003,-0.00119578,0.0571
 7841,-0.05280589,0.07336607,-0.00147698,0.00301485,0.00066257,0.000112
 31,0.00000836,-0.00005945,-0.00249577,0.00050317,0.00144964,-0.0073136
 5,-0.01175870,0.02497497,-0.03449418,-0.00293917,0.00035799,-0.0050300
 6,0.01817411,-0.02179634,-0.00006419,0.00010057,-0.00055582,0.00001353
 ,-0.00011196,-0.00005481,-0.00000429,-0.00035001,0.00029319,-0.0003532
 8,-0.00043092,0.00076447,0.05157159,0.00221510,0.00467067,0.00407606,0
 .00034375,0.00019850,-0.00045192,0.00050336,0.00129430,0.00082482,-0.0
 0424438,0.00212159,0.00918510,-0.00290228,-0.09552380,0.08168689,0.010
 59713,-0.01124804,0.02009594,-0.00001721,-0.00056043,-0.00012539,0.000
 03386,-0.00058103,-0.00017224,-0.00015793,-0.00026001,-0.00015990,-0.0
 0011684,0.00019752,-0.00044566,-0.00630064,0.10092290,0.00077323,0.003
 86839,0.00174006,0.00000497,-0.00010760,0.00035956,0.00148653,0.000692
 04,0.00012735,0.01366472,0.01308318,-0.01977926,0.00049788,0.08147250,
 -0.16512633,-0.01043658,0.01640985,-0.01325155,0.00016356,-0.00020706,
 -0.00016525,-0.00027517,-0.00005718,0.00006121,0.00001426,-0.00006959,
 -0.00032231,0.00028040,-0.00028678,0.00014919,-0.00505418,-0.11363902,
 0.19646405,-0.00269438,-0.00408194,0.01133950,0.00095963,0.00054312,-0
 .00009076,0.00027275,0.00010022,-0.00040436,-0.00131080,0.00302272,0.0
 0030156,-0.03911205,0.00947699,0.00912513,-0.17098277,-0.00818131,0.08
 003410,-0.00025298,-0.00037380,-0.00021442,-0.00000171,-0.00016972,-0.
 00017252,-0.00024229,-0.00019581,-0.00006666,-0.00038202,-0.00008484,0
 .00012045,-0.00043193,-0.00001114,-0.00088193,0.21375757,-0.01206132,0
 .00077661,0.01549198,0.00139485,0.00032443,0.00201750,-0.00024622,0.00
 015465,-0.00018968,0.00275311,0.00429934,0.00418159,0.01713430,0.00273
 769,-0.00366394,-0.00810136,-0.03915812,0.00060540,0.00003705,-0.00123
 382,0.00047478,-0.00047007,-0.00023961,0.00009756,-0.00023237,-0.00060
 356,-0.00038558,0.00009999,-0.00022666,-0.00034731,0.00003133,-0.00152
 935,-0.00116009,-0.00075109,0.03469579,0.02150306,0.01206303,-0.023232
 85,-0.00004989,0.00206140,-0.00150583,-0.00032039,0.00005927,0.0001402
 0,0.00020942,0.00372134,0.00210985,-0.00172935,0.00038432,0.00666334,0
 .07999559,0.00025232,-0.08364724,0.00036069,0.00049919,-0.00137457,0.0
 0045193,-0.00014090,-0.00012393,0.00000948,-0.00040272,-0.00032636,-0.
 00015949,-0.00024532,0.00002182,-0.00099830,-0.00111530,-0.00008654,-0
 .09898967,-0.01790524,0.10147568,-0.00213259,0.00927927,-0.02217226,-0
 .00318880,-0.00277168,0.00317818,-0.00062827,0.00091264,-0.00098731,-0
 .00081844,-0.00054798,0.00135690,0.00196533,-0.00023390,-0.00053681,-0
 .00141612,0.00419784,-0.00056317,-0.04301655,0.02107299,-0.04315339,-0
 .00277567,0.00497145,0.00002911,-0.00001099,-0.00006117,0.00002587,-0.
 00008963,0.00005091,-0.00003276,-0.00011891,-0.00019472,-0.00019182,0.
 00005955,-0.00004077,0.00000093,0.05822048,0.02336106,-0.01515251,0.02
 114905,-0.00343198,-0.00642429,0.00642440,-0.00164310,0.00136500,-0.00
 200083,-0.00170216,-0.00087713,0.00241744,0.00337129,-0.00115577,-0.00
 028397,0.00155984,0.00511338,-0.00033027,0.00920777,-0.02826491,0.0374
 6327,-0.00163571,0.00835095,-0.00008935,-0.00003400,-0.00003983,-0.000
 01983,-0.00002753,0.00006941,0.00000041,-0.00006589,-0.00040207,-0.000
 21083,0.00013231,0.00006869,-0.00011350,-0.01861682,0.04683734,-0.0088
 5259,0.00950675,-0.01115240,-0.00108611,-0.00106435,0.00140573,-0.0002
 0792,0.00021302,-0.00063321,-0.00055444,-0.00006921,0.00053317,0.00056
 708,-0.00035907,0.00014195,-0.00011544,0.00135577,0.00007017,-0.040493
 19,0.04968435,-0.20151727,0.00006740,0.00213309,-0.00055973,-0.0000937
 5,0.00001089,0.00006514,-0.00002303,0.00002829,0.00001298,-0.00001651,
 0.00001597,-0.00022615,0.00008372,-0.00001932,-0.00001611,0.05337530,-
 0.05714392,0.23268300,-0.00120023,0.00080904,0.00040092,0.00244564,0.0
 0610079,-0.00819362,0.00022703,-0.00123568,0.00046959,0.00069815,-0.00
 001585,-0.00045139,-0.00038232,0.00024739,-0.00012360,-0.00001425,-0.0
 0037775,0.00024676,-0.00103054,-0.00134817,0.00102177,-0.13698969,0.02
 905168,-0.08823331,-0.00001931,-0.00000741,0.00002779,-0.00011430,0.00
 013121,0.00000609,0.00001274,-0.00000578,0.00003344,0.00007241,0.00005
 073,-0.00004084,-0.00012082,-0.00005304,0.00038903,0.15696341,0.007479
 86,-0.00554323,-0.00022274,0.01042261,-0.01615726,0.02994142,-0.001450
 24,0.00458952,0.00160044,-0.00159050,-0.00144165,0.00265392,0.00287690
 ,-0.00054935,-0.00040663,-0.00107846,0.00131825,-0.00224156,-0.0001835
 0,0.00804617,-0.00083629,0.02403809,-0.02651229,0.02233677,-0.00016741
 ,0.00005276,0.00006514,-0.00011995,-0.00038552,-0.00016622,0.00000722,
 0.00006767,-0.00001262,0.00000441,-0.00003111,-0.00004395,-0.00057301,
 -0.00060720,-0.00038960,-0.03752122,0.04414731,0.00527842,-0.00274920,
 -0.00146582,-0.01963137,0.01092424,-0.01472641,-0.00026990,0.00466756,
 -0.00104829,-0.00134631,-0.00065328,0.00169562,0.00193761,-0.00037753,
 -0.00023204,-0.00086537,0.00096937,-0.00119936,0.00042682,0.00601042,-
 0.00199976,-0.09261765,0.03823675,-0.10929565,-0.00005379,-0.00005063,
 0.00007877,-0.00018177,-0.00018975,-0.00024744,0.00001695,0.00006855,-
 0.00008770,0.00007666,-0.00004286,-0.00002707,0.00051505,-0.00069365,0
 .00028582,0.10373890,-0.03907107,0.13662999,0.01317142,-0.01590557,0.0
 0594990,-0.00504239,0.01330452,0.00179293,0.00043479,-0.00070875,-0.00
 000515,-0.00194280,0.00014486,0.00070656,0.00207714,-0.00131495,0.0004
 1949,-0.00190673,0.00264138,-0.00379165,-0.01124965,0.01834533,-0.0022
 5656,-0.01255579,0.00070409,-0.00042946,0.00012225,0.00047663,-0.00003
 275,0.00031595,-0.00003120,0.00017059,0.00002162,0.00026193,-0.0001636
 8,0.00024397,-0.00005916,0.00012094,-0.00862420,-0.01296540,-0.0069985
 6,0.00450641,-0.00046655,0.00154093,0.25423112,0.06261019,-0.05957504,
 0.01337124,-0.01241045,-0.06231643,0.05747649,-0.01273536,0.01015738,-
 0.01652012,-0.01254692,-0.00641272,0.01554162,0.02013750,-0.00451311,-
 0.00395168,-0.00962114,0.01056237,-0.01870408,0.00400727,0.07678240,-0
 .01049079,-0.01887077,0.07430909,0.00330617,0.00038353,0.00009023,-0.0
 0004137,0.00053441,0.00008600,0.00026392,-0.00002383,0.00007130,0.0005
 6751,-0.00020214,0.00002065,0.00032195,-0.01639145,-0.01574303,-0.0099
 6251,0.00062370,-0.01398370,-0.01916923,-0.08884746,0.21002159,0.01647
 074,0.00115143,0.00124626,-0.00333613,-0.01826435,0.02219939,-0.004122
 22,0.00360762,-0.00546055,-0.00285451,-0.00224990,0.00417937,0.0048745
 1,-0.00075132,-0.00173522,-0.00215773,0.00163126,-0.00352986,0.0005988
 9,0.01960082,-0.01500726,-0.00674693,0.02969692,-0.01122317,0.00010128
 ,0.00017762,0.00028328,0.00002051,0.00027585,0.00006742,0.00001541,0.0
 0008897,0.00037635,-0.00003657,0.00049446,0.00023295,-0.00703731,-0.00
 936553,0.00057945,0.00134296,-0.01587236,-0.01430890,0.32800237,-0.131
 85213,0.58475831,-0.03238496,0.01708358,0.01152148,-0.00052614,0.00378
 732,0.00099798,-0.00004144,-0.00044571,0.00005698,0.00016282,0.0000446
 4,-0.00025954,-0.00055769,-0.00014580,0.00030506,-0.00095156,-0.000695
 45,-0.00033274,-0.14471104,0.01731359,0.09043849,0.00006244,-0.0002414
 2,-0.00027996,-0.00005557,0.00013560,0.00008619,-0.00004769,0.00006662
 ,0.00000697,0.00009876,0.00017776,-0.00005260,0.00025506,0.00042981,-0
 .00034024,0.00324737,0.00157314,0.00436062,0.00011477,0.00008496,0.000
 19957,-0.00246756,-0.00303881,0.00211110,0.17798827,0.02033085,-0.0005
 4316,-0.01029562,0.00281117,0.00285847,0.00385573,0.00065776,-0.000335
 62,-0.00014186,0.00043975,0.00000247,-0.00055899,-0.00072330,0.0003680
 8,-0.00014874,0.00009070,-0.00324442,-0.00032104,0.01872345,-0.0431724
 2,-0.01662994,-0.00096383,-0.00058461,0.00022685,0.00018615,0.00009990
 ,0.00014912,-0.00000127,0.00003694,0.00001615,0.00005314,0.00017371,0.
 00022447,0.00025216,-0.00027540,0.00064378,-0.00204730,0.00681783,0.00
 504835,-0.00019862,0.00020885,-0.00002615,-0.00276274,0.00029618,0.002
 05487,-0.03717516,0.03767637,0.00046753,-0.00109936,0.00585987,0.00033
 608,0.00141892,0.00075841,-0.00008378,-0.00005136,0.00001091,0.0002216
 8,-0.00001148,-0.00018487,-0.00016089,0.00024906,-0.00023968,-0.000867
 50,-0.00070484,-0.00015279,0.09316766,-0.01825708,-0.11063822,-0.00035
 873,-0.00041046,0.00025624,0.00003251,0.00004064,0.00001516,0.00003138
 ,0.00000235,-0.00000118,-0.00000917,0.00002729,0.00016480,-0.00036097,
 0.00054238,-0.00009402,0.01511279,0.00049465,-0.02044549,-0.00038003,0
 .00014016,-0.00008086,0.00193704,0.00203113,0.00060621,-0.10856535,0.0
 1616522,0.12441559,-0.00019132,-0.00080293,0.00014443,-0.00495089,-0.0
 1002396,0.01189765,0.00019686,0.00002769,-0.00026614,-0.00040763,0.000
 21771,0.00001540,-0.00002632,-0.00003778,0.00007241,0.00003169,0.00020
 178,-0.00009163,0.00043318,-0.00015313,-0.00007985,-0.18855154,-0.0408
 7450,0.06386537,0.00020268,0.00034235,-0.00037960,0.00016560,-0.000060
 71,0.00001458,-0.00002543,-0.00003694,0.00003948,-0.00004985,-0.000041
 81,0.00001215,0.00002403,0.00008904,-0.00039870,-0.02352486,-0.0030866
 5,0.00082824,-0.00229106,0.00284653,0.00260317,-0.00012075,0.00021977,
 0.00033548,0.21876025,0.00176700,0.00251167,0.00444294,-0.02024544,-0.
 00479494,0.01509602,-0.00003415,-0.00321208,-0.00019968,0.00011476,0.0
 0044114,-0.00066428,-0.00067984,-0.00007048,0.00012681,-0.00040611,-0.
 00036145,0.00049046,0.00074361,-0.00047603,-0.00077225,-0.03996045,-0.
 05017176,0.01535739,0.00051411,-0.00026468,0.00048217,0.00017403,0.000
 16625,0.00015854,0.00000856,0.00003112,0.00001303,0.00002679,0.0000793
 6,0.00024034,0.00004513,0.00022433,-0.00021255,0.00320839,0.00695501,0
 .00069087,0.00272822,0.00099301,-0.00120499,-0.00025696,-0.00010177,0.
 00013472,0.05231703,0.04849448,0.00096895,0.00422569,0.00077095,0.0222
 3851,0.01751771,-0.01732256,0.00034310,-0.00102245,-0.00133387,0.00041
 124,0.00007125,-0.00046319,-0.00043402,-0.00000916,0.00007792,0.000099
 98,-0.00042613,-0.00003659,0.00001717,-0.00042631,-0.00022333,0.061373
 36,0.01311308,-0.05979844,-0.00035943,0.00059293,-0.00005256,-0.000017
 57,0.00017243,0.00010541,0.00001284,0.00006420,-0.00001760,0.00007805,
 0.00015024,0.00002999,0.00014746,0.00016658,-0.00000575,-0.00965096,0.
 00078880,0.00618961,0.00279389,-0.00144313,-0.00026754,-0.00013523,-0.
 00018047,-0.00001776,-0.07783554,-0.03417534,0.07282574,0.00172517,-0.
 00113685,-0.00088387,-0.00061851,-0.00312576,0.00142759,-0.00046154,0.
 00109387,-0.00045479,-0.00009142,-0.00055451,0.00091503,0.00114762,-0.
 00011558,-0.00018072,-0.00030008,0.00012305,-0.00063723,0.00005401,0.0
 0168937,-0.00271570,0.00185910,-0.00008114,0.00041461,-0.00029408,-0.0
 0030522,0.00003509,-0.00035314,0.00005502,-0.00015858,0.00000687,0.000
 03419,-0.00015750,0.00004681,0.00006792,-0.00009326,-0.00023264,-0.000
 65338,0.00057053,-0.00029127,0.00024154,0.00036984,-0.13015204,-0.0336
 0905,-0.19855283,0.00048972,-0.00005152,-0.00048983,-0.00025349,-0.000
 05822,0.00003711,0.13290757,-0.00348368,0.00154756,-0.00071898,0.00090
 498,0.00170338,-0.00329805,0.00073387,-0.00063432,0.00062290,0.0007218
 0,0.00014058,-0.00058760,-0.00085116,0.00006612,0.00033504,0.00026260,
 -0.00072331,0.00090113,-0.00329737,-0.00491974,-0.00156290,0.00087485,
 -0.00478078,-0.00380975,-0.00018115,0.00006829,0.00014472,-0.00022056,
 0.00014215,-0.00006329,0.00003355,0.00015502,-0.00020244,0.00019668,0.
 00011314,-0.00007744,0.00041254,0.00014170,0.00052080,0.00019479,0.000
 18339,0.00063727,-0.04830646,-0.02962779,-0.08215873,0.00053563,-0.000
 09611,-0.00028013,-0.00046319,-0.00015512,0.00032428,0.04064276,0.0379
 7099,0.00262941,-0.00382260,-0.00058589,-0.00191604,-0.00299571,0.0015
 9902,-0.00065963,0.00064460,-0.00081203,-0.00075146,-0.00053792,0.0014
 6896,0.00153942,-0.00061562,0.00030331,-0.00045287,0.00124597,-0.00088
 194,-0.00086969,0.00013671,0.00047821,-0.00184213,0.00119980,-0.001467
 46,-0.00029889,-0.00008868,0.00003424,-0.00037454,0.00007223,-0.000166
 13,0.00003002,0.00012213,-0.00053849,0.00026669,-0.00026484,-0.0003522
 0,0.00041829,-0.00000600,0.00027656,0.00062668,-0.00053240,0.00029405,
 -0.20005196,-0.05767452,-0.35211973,0.00049143,-0.00007481,-0.00052493
 ,-0.00092536,-0.00018490,0.00027710,0.21430228,0.07088515,0.37093803,-
 0.00208283,0.00213378,-0.00025674,0.00141586,0.00057506,-0.00196052,0.
 00032303,-0.00019350,0.00061047,0.00071009,0.00017566,-0.00073185,-0.0
 0075439,0.00052333,-0.00021412,0.00038551,-0.00064784,0.00073385,0.002
 64384,-0.00260119,0.00248310,0.00142680,-0.00092729,-0.00079671,0.0001
 3921,-0.00005759,-0.00006005,0.00006372,-0.00005952,0.00000459,-0.0000
 2839,-0.00017833,0.00025547,-0.00020651,0.00000545,0.00005722,-0.00034
 401,0.00153317,-0.00057390,-0.00135293,0.00108054,0.00003651,-0.098893
 58,0.11714285,-0.13129409,-0.00055445,0.00015920,-0.00036598,0.0005781
 9,-0.00000607,-0.00008911,-0.00518901,0.01129076,-0.01216363,0.1017189
 7,-0.00190648,0.00113342,-0.00069810,0.00022961,0.00115715,-0.00195268
 ,0.00038896,-0.00018268,0.00040542,0.00045397,-0.00014682,0.00003165,-
 0.00015616,-0.00015761,0.00037665,0.00018702,-0.00022301,0.00053320,-0
 .00203397,-0.00753997,0.00231343,0.00367711,-0.00708589,-0.00136016,-0
 .00031965,-0.00001536,0.00017118,-0.00038373,0.00018058,-0.00013181,0.
 00004631,0.00019973,-0.00037802,0.00029629,0.00002751,-0.00020233,0.00
 053566,-0.00032266,0.00070335,0.00034615,-0.00035814,0.00081819,0.1327
 5809,-0.19121789,0.20293613,0.00076701,-0.00018534,-0.00043153,-0.0006
 8047,-0.00028860,0.00049589,-0.00425530,-0.00129405,-0.00750725,-0.129
 94655,0.20631848,-0.00406646,0.00163129,0.00019632,0.00139899,0.003028
 84,-0.00332627,0.00080726,-0.00084721,0.00110058,0.00055475,0.00073313
 ,-0.00122088,-0.00154035,0.00034200,0.00025294,0.00068479,-0.00058008,
 0.00108199,-0.00026483,-0.00339008,0.00249406,0.00247862,-0.00426821,0
 .00325364,0.00020731,-0.00000133,-0.00018921,0.00028313,-0.00019622,0.
 00008664,-0.00003348,-0.00014731,0.00015928,-0.00020781,-0.00007725,0.
 00011207,0.00051451,0.00214015,-0.00149842,-0.00123012,0.00226765,-0.0
 0045522,-0.12970029,0.17692336,-0.21087511,-0.00060996,-0.00000599,0.0
 0029233,0.00014823,0.00018140,-0.00073702,-0.01375000,0.01838827,-0.01
 822244,0.14432371,-0.19611987,0.22749302||-0.00000030,0.00000010,-0.00
 000013,-0.00000007,-0.00000022,0.00000065,-0.00000003,-0.00000009,-0.0
 0000031,0.00000007,-0.00000019,0.00000019,0.00000013,-0.00000014,0.000
 00015,-0.00000022,0.00000013,-0.00000005,0.00000040,-0.00000018,0.0000
 0015,-0.00000021,0.00000048,-0.00000068,0.00000002,0.00000005,0.,0.000
 00002,0.00000003,0.00000005,0.00000001,-0.00000002,0.00000001,-0.00000
 003,-0.00000002,0.,0.00000005,-0.00000015,-0.00000007,0.,0.00000014,0.
 00000010,0.00000038,0.00000032,-0.00000032,0.00000006,-0.00000007,0.00
 000002,0.00000005,-0.00000018,0.,-0.00000013,-0.00000006,0.00000032,-0
 .00000020,0.00000005,-0.00000007|||@
 The archive entry for this job was punched.


 THERE ARE PEOPLE SO ADDICTED TO EXAGERATING THEY
 CAN'T TELL THE TRUTH WITHOUT LYING. -- FORTUNE COOKIE
 Job cpu time:       0 days  0 hours  0 minutes  6.0 seconds.
 Elapsed time:       0 days  0 hours  0 minutes  4.0 seconds.
 File lengths (MBytes):  RWF=     31 Int=      0 D2E=      0 Chk=      2 Scr=      1
 Normal termination of Gaussian 16 at Sat Nov 15 13:06:29 2025.
