 Default is to use a total of   8 processors:
                                8 via shared-memory
                                1 via Linda
 Entering Link 1 = C:\G16W\l1.exe PID=     22972.
  
 Copyright (c) 1988-2019, Gaussian, Inc.  All Rights Reserved.
  
 This is part of the Gaussian(R) 16 program.  It is based on
 the Gaussian(R) 09 system (copyright 2009, Gaussian, Inc.),
 the Gaussian(R) 03 system (copyright 2003, Gaussian, Inc.),
 the Gaussian(R) 98 system (copyright 1998, Gaussian, Inc.),
 the Gaussian(R) 94 system (copyright 1995, Gaussian, Inc.),
 the Gaussian 92(TM) system (copyright 1992, Gaussian, Inc.),
 the Gaussian 90(TM) system (copyright 1990, Gaussian, Inc.),
 the Gaussian 88(TM) system (copyright 1988, Gaussian, Inc.),
 the Gaussian 86(TM) system (copyright 1986, Carnegie Mellon
 University), and the Gaussian 82(TM) system (copyright 1983,
 Carnegie Mellon University). Gaussian is a federally registered
 trademark of Gaussian, Inc.
  
 This software contains proprietary and confidential information,
 including trade secrets, belonging to Gaussian, Inc.
  
 This software is provided under written license and may be
 used, copied, transmitted, or stored only in accord with that
 written license.
  
 The following legend is applicable only to US Government
 contracts under FAR:
  
                    RESTRICTED RIGHTS LEGEND
  
 Use, reproduction and disclosure by the US Government is
 subject to restrictions as set forth in subparagraphs (a)
 and (c) of the Commercial Computer Software - Restricted
 Rights clause in FAR 52.227-19.
  
 Gaussian, Inc.
 340 Quinnipiac St., Bldg. 40, Wallingford CT 06492
  
  
 ---------------------------------------------------------------
 Warning -- This program may not be used in any manner that
 competes with the business of Gaussian, Inc. or will provide
 assistance to any competitor of Gaussian, Inc.  The licensee
 of this program is prohibited from giving any competitor of
 Gaussian, Inc. access to this program.  By using this program,
 the user acknowledges that Gaussian, Inc. is engaged in the
 business of creating and licensing software in the field of
 computational chemistry and represents and warrants to the
 licensee that it is not a competitor of Gaussian, Inc. and that
 it will not use this program in any manner prohibited above.
 ---------------------------------------------------------------
  

 Cite this work as:
 Gaussian 16, Revision C.01,
 M. J. Frisch, G. W. Trucks, H. B. Schlegel, G. E. Scuseria, 
 M. A. Robb, J. R. Cheeseman, G. Scalmani, V. Barone, 
 G. A. Petersson, H. Nakatsuji, X. Li, M. Caricato, A. V. Marenich, 
 J. Bloino, B. G. Janesko, R. Gomperts, B. Mennucci, H. P. Hratchian, 
 J. V. Ortiz, A. F. Izmaylov, J. L. Sonnenberg, D. Williams-Young, 
 F. Ding, F. Lipparini, F. Egidi, J. Goings, B. Peng, A. Petrone, 
 T. Henderson, D. Ranasinghe, V. G. Zakrzewski, J. Gao, N. Rega, 
 G. Zheng, W. Liang, M. Hada, M. Ehara, K. Toyota, R. Fukuda, 
 J. Hasegawa, M. Ishida, T. Nakajima, Y. Honda, O. Kitao, H. Nakai, 
 T. Vreven, K. Throssell, J. A. Montgomery, Jr., J. E. Peralta, 
 F. Ogliaro, M. J. Bearpark, J. J. Heyd, E. N. Brothers, K. N. Kudin, 
 V. N. Staroverov, T. A. Keith, R. Kobayashi, J. Normand, 
 K. Raghavachari, A. P. Rendell, J. C. Burant, S. S. Iyengar, 
 J. Tomasi, M. Cossi, J. M. Millam, M. Klene, C. Adamo, R. Cammi, 
 J. W. Ochterski, R. L. Martin, K. Morokuma, O. Farkas, 
 J. B. Foresman, and D. J. Fox, Gaussian, Inc., Wallingford CT, 2019.
 
 ******************************************
 Gaussian 16:  EM64W-G16RevC.01 30-May-2019
                14-Nov-2025 
 ******************************************
 %mem=6GB
 %chk=C:\Users\al6323\OneDrive - Imperial College London\Desktop\TSR20251114\o-xy
 lyene_opt+freq.chk
 %nprocshared=8
 Will use up to    8 processors via shared memory.
 Default route: MaxDisk=10GB
 ----------------------------------------------------------------------
 # opt=(calcfc,tight,cartesian,maxcycles=200,maxstep=5) freq rpm6 nosym
 m geom=connectivity scf=(xqc,verytight)
 ----------------------------------------------------------------------
 1/6=200,7=10,8=5,10=4,18=10,26=1,38=1,57=2/1,3;
 2/12=2,15=1,17=6,18=5,29=2,40=1/2;
 3/5=2,25=1,41=3900000,71=2,116=1,140=1/1,2,3;
 4/35=1/1;
 5/5=2,8=3,13=1,17=3,35=1,38=5/2,8;
 8/6=4,10=90,11=11/1;
 11/6=1,8=1,9=11,15=111,16=1,31=1/1,2,10;
 10/6=1,13=1,31=1/2;
 6/7=2,8=2,9=2,10=2,28=1/1;
 7/7=1,10=1,25=1,30=1/1,2,3,16;
 1/6=200,7=10,8=5,10=4,18=10,26=1/3(2);
 2/15=1,29=1/2;
 99/12=1/99;
 2/15=1,29=1/2;
 3/5=2,25=1,41=3900000,71=1,116=1,135=20/1,2,3;
 4/5=5,16=3,35=1/1;
 5/5=2,8=3,13=1,17=3,35=1,38=5/2,8;
 7/7=1,30=1/1,2,3,16;
 1/6=200,7=10,8=5,18=10,26=1/3(-5);
 2/15=1,29=1/2;
 6/7=2,8=2,9=2,10=2,19=2,28=1/1;
 99/9=1,12=1/99;
 -------------------
 Title Card Required
 -------------------
 Symbolic Z-matrix:
 Charge =  0 Multiplicity = 1
 C                    -3.06917   0.147     2.21831 
 C                    -1.53673   0.18935   2.1532 
 C                    -0.84951   1.5542    2.16716 
 C                    -1.72864   2.80934   2.24554 
 C                    -3.08379   2.69108   2.30052 
 C                    -3.78165   1.30509   2.28635 
 H                    -3.57849  -0.79397   2.21023 
 H                    -3.68276   3.57605   2.35488 
 H                    -4.8497    1.25846   2.33119 
 C                    -0.81175  -0.9536    2.08509 
 H                    -1.30742  -1.90183   2.07618 
 H                    -1.27602   3.77883   2.257 
 C                     0.50092   1.65342   2.11176 
 H                     1.10056   0.7689    2.05738 
 H                     0.9675    2.61627   2.1224 
 H                     0.25632  -0.90779   2.04023 
 

 GradGradGradGradGradGradGradGradGradGradGradGradGradGradGradGradGradGrad
 Berny optimization.
 Initialization pass.
 No Z-matrix variables, so optimization will use Cartesian coordinates.
 Trust Radius=5.00D-02 FncErr=1.00D-07 GrdErr=1.00D-07 EigMax=2.50D+02 EigMin=1.00D-04
 Number of steps in this run=    100 maximum allowed number of steps=    100.
 GradGradGradGradGradGradGradGradGradGradGradGradGradGradGradGradGradGrad

 ---------------------------------------------------------------------------------------------------
                            Z-MATRIX (ANGSTROMS AND DEGREES)
   CD    Cent   Atom    N1       Length/X        N2       Alpha/Y        N3        Beta/Z          J
 ---------------------------------------------------------------------------------------------------
      1      1  C        0  -3.069166          0.147000          2.218310
      2      2  C        0  -1.536735          0.189350          2.153197
      3      3  C        0  -0.849511          1.554204          2.167156
      4      4  C        0  -1.728640          2.809341          2.245539
      5      5  C        0  -3.083788          2.691077          2.300525
      6      6  C        0  -3.781653          1.305088          2.286352
      7      7  H        0  -3.578486         -0.793972          2.210227
      8      8  H        0  -3.682759          3.576052          2.354881
      9      9  H        0  -4.849696          1.258465          2.331186
     10     10  C        0  -0.811752         -0.953598          2.085093
     11     11  H        0  -1.307419         -1.901825          2.076183
     12     12  H        0  -1.276018          3.778827          2.256996
     13     13  C        0   0.500916          1.653417          2.111760
     14     14  H        0   1.100560          0.768900          2.057384
     15     15  H        0   0.967505          2.616268          2.122397
     16     16  H        0   0.256325         -0.907786          2.040231
 ---------------------------------------------------------------------------------------------------
                         Z-Matrix orientation:                         
 ---------------------------------------------------------------------
 Center     Atomic      Atomic             Coordinates (Angstroms)
 Number     Number       Type             X           Y           Z
 ---------------------------------------------------------------------
      1          6           0       -3.069166    0.147000    2.218310
      2          6           0       -1.536735    0.189350    2.153197
      3          6           0       -0.849511    1.554204    2.167156
      4          6           0       -1.728640    2.809341    2.245539
      5          6           0       -3.083788    2.691077    2.300525
      6          6           0       -3.781653    1.305088    2.286352
      7          1           0       -3.578486   -0.793972    2.210227
      8          1           0       -3.682759    3.576052    2.354881
      9          1           0       -4.849696    1.258465    2.331186
     10          6           0       -0.811752   -0.953598    2.085093
     11          1           0       -1.307419   -1.901825    2.076183
     12          1           0       -1.276018    3.778827    2.256996
     13          6           0        0.500916    1.653417    2.111760
     14          1           0        1.100560    0.768900    2.057384
     15          1           0        0.967505    2.616268    2.122397
     16          1           0        0.256325   -0.907786    2.040231
 ---------------------------------------------------------------------
                    Distance matrix (angstroms):
                    1          2          3          4          5
     1  C    0.000000
     2  C    1.534399   0.000000
     3  C    2.628633   1.528168   0.000000
     4  C    2.980909   2.628633   1.534399   0.000000
     5  C    2.545448   2.945118   2.510431   1.361410   0.000000
     6  C    1.361410   2.510431   2.945118   2.545448   1.551832
     7  H    1.070000   2.266920   3.600429   4.050561   3.521143
     8  H    3.486194   4.014455   3.485743   2.101995   1.070000
     9  H    2.101995   3.485743   4.014455   3.486194   2.274148
    10  C    2.514951   1.355200   2.509429   3.876356   4.300258
    11  H    2.705853   2.105120   3.487420   4.732991   4.929561
    12  H    4.050561   3.600429   2.266920   1.070000   2.110243
    13  C    3.876356   2.509429   1.355200   2.514951   3.736640
    14  H    4.218919   2.701922   2.105120   3.493304   4.611145
    15  H    4.732991   3.487420   2.105120   2.705853   4.055897
    16  H    3.493305   2.105120   2.701922   4.218919   4.916902
                    6          7          8          9         10
     6  C    0.000000
     7  H    2.110243   0.000000
     8  H    2.274148   4.373660   0.000000
     9  H    1.070000   2.417251   2.594901   0.000000
    10  C    3.736640   2.774159   5.369655   4.610724   0.000000
    11  H    4.055897   2.530426   5.977211   4.753966   1.070000
    12  H    3.521143   5.119965   2.417251   4.373660   4.758249
    13  C    4.300258   4.758249   4.610724   5.369655   2.918962
    14  H    4.916902   4.935525   5.554165   5.976637   2.573850
    15  H    4.929561   5.683616   4.753966   5.977211   3.988871
    16  H    4.611145   3.840264   5.976637   5.554165   1.070000
                   11         12         13         14         15
    11  H    0.000000
    12  H    5.683616   0.000000
    13  C    3.988871   2.774159   0.000000
    14  H    3.596038   3.840264   1.070000   0.000000
    15  H    5.058714   2.530426   1.070000   1.853294   0.000000
    16  H    1.853294   4.935525   2.573850   1.877313   3.596038
                   16
    16  H    0.000000
 Symmetry turned off by external request.
 Stoichiometry    C8H8
 Framework group  C1[X(C8H8)]
 Deg. of freedom    42
 Full point group                 C1      NOp   1
 Rotational constants (GHZ):           3.0783537           2.2716085           1.3070774
 Standard basis: VSTO-6G (5D, 7F)
    40 basis functions,   240 primitive gaussians,    40 cartesian basis functions
    20 alpha electrons       20 beta electrons
       nuclear repulsion energy       184.5882097949 Hartrees.
 Integral buffers will be    131072 words long.
 Regular integral format.
 Two-electron integral symmetry is turned off.
 Do NDO integrals.
 One-electron integrals computed using PRISM.
 NBasis=    40 RedAO= F EigKep=  0.00D+00  NBF=    40
 NBsUse=    40 1.00D-04 EigRej=  0.00D+00 NBFU=    40
 Simple Huckel Guess.
 Keep J ints in memory in canonical form, NReq=863731.
 Overlap will be assumed to be unity.
 Requested convergence on RMS density matrix=1.00D-08 within  32 cycles.
 Requested convergence on MAX density matrix=1.00D-06.
 Requested convergence on             energy=1.00D-06.
 No special actions if energy rises.
 SCF Done:  E(RPM6) =  0.106221501782     A.U. after   12 cycles
            NFock= 11  Conv=0.58D-08     -V/T= 1.0017
 QCSCF skips out because SCF is already converged.
 Range of M.O.s used for correlation:     1    40
 NBasis=    40 NAE=    20 NBE=    20 NFC=     0 NFV=     0
 NROrb=     40 NOA=    20 NOB=    20 NVA=    20 NVB=    20
 Symmetrizing basis deriv contribution to polar:
 IMax=3 JMax=2 DiffMx= 0.00D+00
 G2DrvN: will do    17 centers at a time, making    1 passes.
 Calling FoFCou, ICntrl=  3107 FMM=F I1Cent=   0 AccDes= 0.00D+00.
 End of G2Drv F.D. properties file   721 does not exist.
 End of G2Drv F.D. properties file   722 does not exist.
 End of G2Drv F.D. properties file   788 does not exist.
          IDoAtm=1111111111111111
          Differentiating once with respect to nuclear coordinates.
          Electric field/nuclear overlap derivatives assumed to be zero.
 Keep J ints in memory in canonical form, NReq=865410.
          There are    51 degrees of freedom in the 1st order CPHF.  IDoFFX=5 NUNeed=    51.
 LinEq1:  Iter=  0 NonCon=    48 RMS=1.32D-02 Max=8.46D-02 NDo=    48
 AX will form    51 AO Fock derivatives at one time.
 LinEq1:  Iter=  1 NonCon=    48 RMS=1.41D-03 Max=1.63D-02 NDo=    51
 LinEq1:  Iter=  2 NonCon=    48 RMS=2.32D-04 Max=2.23D-03 NDo=    51
 LinEq1:  Iter=  3 NonCon=    48 RMS=4.72D-05 Max=3.73D-04 NDo=    51
 LinEq1:  Iter=  4 NonCon=    48 RMS=1.17D-05 Max=1.02D-04 NDo=    51
 LinEq1:  Iter=  5 NonCon=    48 RMS=2.05D-06 Max=1.82D-05 NDo=    51
 LinEq1:  Iter=  6 NonCon=    48 RMS=4.31D-07 Max=3.24D-06 NDo=    51
 LinEq1:  Iter=  7 NonCon=    37 RMS=7.58D-08 Max=7.45D-07 NDo=    51
 LinEq1:  Iter=  8 NonCon=     3 RMS=1.18D-08 Max=1.08D-07 NDo=    37
 LinEq1:  Iter=  9 NonCon=     0 RMS=1.88D-09 Max=1.72D-08 NDo=     3
 Linear equations converged to 1.000D-08 1.000D-07 after     9 iterations.
 End of Minotr F.D. properties file   721 does not exist.
 End of Minotr F.D. properties file   722 does not exist.
 End of Minotr F.D. properties file   788 does not exist.

 **********************************************************************

            Population analysis using the SCF Density.

 **********************************************************************

 Alpha  occ. eigenvalues --   -1.05539  -0.99740  -0.97446  -0.90370  -0.81476
 Alpha  occ. eigenvalues --   -0.75535  -0.70920  -0.61731  -0.60627  -0.59408
 Alpha  occ. eigenvalues --   -0.53098  -0.51161  -0.51062  -0.48573  -0.47440
 Alpha  occ. eigenvalues --   -0.44410  -0.42502  -0.39193  -0.39105  -0.32196
 Alpha virt. eigenvalues --   -0.02026   0.03803   0.03848   0.09017   0.13422
 Alpha virt. eigenvalues --    0.13597   0.14119   0.15605   0.18869   0.19569
 Alpha virt. eigenvalues --    0.20047   0.21160   0.21687   0.22220   0.22310
 Alpha virt. eigenvalues --    0.22688   0.22837   0.23255   0.23389   0.24587
          Condensed to atoms (all electrons):
               1          2          3          4          5          6
     1  C    4.171477   0.000000   0.000000   0.000000   0.000000   0.000000
     2  C    0.000000   3.937149   0.000000   0.000000   0.000000   0.000000
     3  C    0.000000   0.000000   3.937149   0.000000   0.000000   0.000000
     4  C    0.000000   0.000000   0.000000   4.171477   0.000000   0.000000
     5  C    0.000000   0.000000   0.000000   0.000000   4.130118   0.000000
     6  C    0.000000   0.000000   0.000000   0.000000   0.000000   4.130118
     7  H    0.000000   0.000000   0.000000   0.000000   0.000000   0.000000
     8  H    0.000000   0.000000   0.000000   0.000000   0.000000   0.000000
     9  H    0.000000   0.000000   0.000000   0.000000   0.000000   0.000000
    10  C    0.000000   0.000000   0.000000   0.000000   0.000000   0.000000
    11  H    0.000000   0.000000   0.000000   0.000000   0.000000   0.000000
    12  H    0.000000   0.000000   0.000000   0.000000   0.000000   0.000000
    13  C    0.000000   0.000000   0.000000   0.000000   0.000000   0.000000
    14  H    0.000000   0.000000   0.000000   0.000000   0.000000   0.000000
    15  H    0.000000   0.000000   0.000000   0.000000   0.000000   0.000000
    16  H    0.000000   0.000000   0.000000   0.000000   0.000000   0.000000
               7          8          9         10         11         12
     1  C    0.000000   0.000000   0.000000   0.000000   0.000000   0.000000
     2  C    0.000000   0.000000   0.000000   0.000000   0.000000   0.000000
     3  C    0.000000   0.000000   0.000000   0.000000   0.000000   0.000000
     4  C    0.000000   0.000000   0.000000   0.000000   0.000000   0.000000
     5  C    0.000000   0.000000   0.000000   0.000000   0.000000   0.000000
     6  C    0.000000   0.000000   0.000000   0.000000   0.000000   0.000000
     7  H    0.850269   0.000000   0.000000   0.000000   0.000000   0.000000
     8  H    0.000000   0.858391   0.000000   0.000000   0.000000   0.000000
     9  H    0.000000   0.000000   0.858391   0.000000   0.000000   0.000000
    10  C    0.000000   0.000000   0.000000   4.371866   0.000000   0.000000
    11  H    0.000000   0.000000   0.000000   0.000000   0.841312   0.000000
    12  H    0.000000   0.000000   0.000000   0.000000   0.000000   0.850269
    13  C    0.000000   0.000000   0.000000   0.000000   0.000000   0.000000
    14  H    0.000000   0.000000   0.000000   0.000000   0.000000   0.000000
    15  H    0.000000   0.000000   0.000000   0.000000   0.000000   0.000000
    16  H    0.000000   0.000000   0.000000   0.000000   0.000000   0.000000
              13         14         15         16
     1  C    0.000000   0.000000   0.000000   0.000000
     2  C    0.000000   0.000000   0.000000   0.000000
     3  C    0.000000   0.000000   0.000000   0.000000
     4  C    0.000000   0.000000   0.000000   0.000000
     5  C    0.000000   0.000000   0.000000   0.000000
     6  C    0.000000   0.000000   0.000000   0.000000
     7  H    0.000000   0.000000   0.000000   0.000000
     8  H    0.000000   0.000000   0.000000   0.000000
     9  H    0.000000   0.000000   0.000000   0.000000
    10  C    0.000000   0.000000   0.000000   0.000000
    11  H    0.000000   0.000000   0.000000   0.000000
    12  H    0.000000   0.000000   0.000000   0.000000
    13  C    4.371866   0.000000   0.000000   0.000000
    14  H    0.000000   0.839418   0.000000   0.000000
    15  H    0.000000   0.000000   0.841312   0.000000
    16  H    0.000000   0.000000   0.000000   0.839418
 Mulliken charges:
               1
     1  C   -0.171477
     2  C    0.062851
     3  C    0.062851
     4  C   -0.171477
     5  C   -0.130118
     6  C   -0.130118
     7  H    0.149731
     8  H    0.141609
     9  H    0.141609
    10  C   -0.371866
    11  H    0.158688
    12  H    0.149731
    13  C   -0.371866
    14  H    0.160582
    15  H    0.158688
    16  H    0.160582
 Sum of Mulliken charges =   0.00000
 Mulliken charges with hydrogens summed into heavy atoms:
               1
     1  C   -0.021746
     2  C    0.062851
     3  C    0.062851
     4  C   -0.021746
     5  C    0.011491
     6  C    0.011491
    10  C   -0.052596
    13  C   -0.052596
 APT charges:
               1
     1  C   -0.171477
     2  C    0.062851
     3  C    0.062851
     4  C   -0.171477
     5  C   -0.130118
     6  C   -0.130118
     7  H    0.149731
     8  H    0.141609
     9  H    0.141609
    10  C   -0.371866
    11  H    0.158688
    12  H    0.149731
    13  C   -0.371866
    14  H    0.160582
    15  H    0.158688
    16  H    0.160582
 Sum of APT charges =   0.00000
 APT charges with hydrogens summed into heavy atoms:
               1
     1  C   -0.021746
     2  C    0.062851
     3  C    0.062851
     4  C   -0.021746
     5  C    0.011491
     6  C    0.011491
    10  C   -0.052596
    13  C   -0.052596
 Charge=              0.0000 electrons
 Dipole moment (field-independent basis, Debye):
    X=             -0.4601    Y=              0.2314    Z=              0.0274  Tot=              0.5157
 N-N= 1.845882097949D+02 E-N=-2.807039948183D+02  KE=-6.322935172868D+01
  Exact polarizability:       0.000       0.000       0.000       0.000       0.000       0.000
 Approx polarizability:      80.689      -8.701      67.697      -3.402       2.269       8.923
 Calling FoFJK, ICntrl=    100127 FMM=F ISym2X=0 I1Cent= 0 IOpClX= 0 NMat=1 NMatS=1 NMatT=0.
 -------------------------------------------------------------------
 Center     Atomic                   Forces (Hartrees/Bohr)
 Number     Number              X              Y              Z
 -------------------------------------------------------------------
      1        6           0.033411014    0.040503888   -0.000150247
      2        6          -0.018721747    0.011292333    0.001173774
      3        6          -0.020230051    0.008296739    0.001143697
      4        6          -0.012637758   -0.050950877   -0.001085846
      5        6           0.006569348   -0.050890493   -0.001916641
      6        6           0.044807754    0.025052669   -0.001140421
      7        1           0.003536290   -0.008434454   -0.000423818
      8        1          -0.010122518    0.000385005    0.000451477
      9        1          -0.006341268    0.007894725    0.000528194
     10        6          -0.022259924    0.025549960    0.001785084
     11        1           0.004325945   -0.006774022   -0.000404880
     12        1           0.008884760    0.002187842   -0.000315255
     13        6          -0.033795188    0.002640455    0.001550639
     14        1           0.009247553    0.000256093   -0.000392920
     15        1           0.008021069    0.000564654   -0.000329824
     16        1           0.005304719   -0.007574517   -0.000473012
 -------------------------------------------------------------------
 Cartesian Forces:  Max     0.050950877 RMS     0.017513792

 GradGradGradGradGradGradGradGradGradGradGradGradGradGradGradGradGradGrad
 Berny optimization.
 Search for a local minimum.
 Step number   1 out of a maximum of  100
 All quantities printed in internal units (Hartrees-Bohrs-Radians)
 Second derivative matrix not updated -- analytic derivatives used.
 ITU=  0
     Eigenvalues ---    0.00205   0.00501   0.00962   0.01056   0.01059
     Eigenvalues ---    0.01451   0.01633   0.02115   0.04152   0.04634
     Eigenvalues ---    0.04883   0.05274   0.06282   0.06792   0.07100
     Eigenvalues ---    0.07317   0.07799   0.09781   0.10190   0.13644
     Eigenvalues ---    0.15213   0.15617   0.16337   0.21503   0.23373
     Eigenvalues ---    0.24201   0.31335   0.32149   0.33197   0.43818
     Eigenvalues ---    0.45250   0.55132   0.58098   0.62121   0.63620
     Eigenvalues ---    0.66137   0.69178   0.70580   1.24249   1.30802
     Eigenvalues ---    1.31742   1.34526
 RFO step:  Lambda=-3.55385262D-02 EMin= 2.04848832D-03
 Linear search not attempted -- first point.
 Maximum step size (   0.050) exceeded in Quadratic search.
    -- Step size scaled by   0.134
 B after Tr=    -0.000720    0.000362    0.000043
         Rot=    1.000000    0.000000    0.000000    0.000000 Ang=   0.00 deg.
 Variable       Old X    -DE/DX   Delta X   Delta X   Delta X     New X
                                 (Linear)    (Quad)   (Total)
    X1       -5.79988   0.03341   0.00000   0.01259   0.01187  -5.78802
    Y1        0.27779   0.04050   0.00000   0.01345   0.01381   0.29160
    Z1        4.19200  -0.00015   0.00000  -0.00011  -0.00007   4.19193
    X2       -2.90401  -0.01872   0.00000  -0.00422  -0.00494  -2.90895
    Y2        0.35782   0.01129   0.00000   0.00709   0.00746   0.36528
    Z2        4.06895   0.00117   0.00000   0.00041   0.00045   4.06941
    X3       -1.60534  -0.02023   0.00000  -0.00822  -0.00894  -1.61428
    Y3        2.93702   0.00830   0.00000  -0.00084  -0.00047   2.93655
    Z3        4.09533   0.00114   0.00000   0.00033   0.00037   4.09570
    X4       -3.26666  -0.01264   0.00000  -0.00330  -0.00403  -3.27068
    Y4        5.30889  -0.05095   0.00000  -0.01812  -0.01775   5.29113
    Z4        4.24345  -0.00109   0.00000  -0.00044  -0.00039   4.24306
    X5       -5.82752   0.00657   0.00000  -0.00077  -0.00149  -5.82901
    Y5        5.08540  -0.05089   0.00000  -0.01523  -0.01486   5.07053
    Z5        4.34736  -0.00192   0.00000  -0.00045  -0.00041   4.34695
    X6       -7.14629   0.04481   0.00000   0.01177   0.01105  -7.13523
    Y6        2.46626   0.02505   0.00000   0.00970   0.01006   2.47632
    Z6        4.32058  -0.00114   0.00000  -0.00020  -0.00016   4.32042
    X7       -6.76236   0.00354   0.00000   0.01439   0.01367  -6.74869
    Y7       -1.50039  -0.00843   0.00000   0.00559   0.00595  -1.49444
    Z7        4.17672  -0.00042   0.00000  -0.00044  -0.00040   4.17632
    X8       -6.95941  -0.01012   0.00000  -0.00529  -0.00602  -6.96542
    Y8        6.75776   0.00039   0.00000  -0.01147  -0.01111   6.74665
    Z8        4.45008   0.00045   0.00000  -0.00014  -0.00010   4.44999
    X9       -9.16460  -0.00634   0.00000   0.00606   0.00534  -9.15925
    Y9        2.37815   0.00789   0.00000   0.01109   0.01145   2.38960
    Z9        4.40530   0.00053   0.00000   0.00009   0.00014   4.40544
   X10       -1.53399  -0.02226   0.00000  -0.00834  -0.00906  -1.54305
   Y10       -1.80204   0.02555   0.00000   0.00753   0.00789  -1.79415
   Z10        3.94025   0.00179   0.00000   0.00060   0.00065   3.94090
   X11       -2.47066   0.00433   0.00000   0.00285   0.00213  -2.46853
   Y11       -3.59393  -0.00677   0.00000  -0.00058  -0.00021  -3.59414
   Z11        3.92342  -0.00040   0.00000  -0.00014  -0.00010   3.92332
   X12       -2.41132   0.00888   0.00000   0.00408   0.00336  -2.40796
   Y12        7.14095   0.00219   0.00000  -0.01488  -0.01452   7.12643
   Z12        4.26510  -0.00032   0.00000  -0.00065  -0.00061   4.26449
   X13        0.94659  -0.03380   0.00000  -0.01102  -0.01174   0.93485
   Y13        3.12451   0.00264   0.00000   0.00221   0.00257   3.12708
   Z13        3.99065   0.00155   0.00000   0.00055   0.00059   3.99124
   X14        2.07976   0.00925   0.00000   0.00332   0.00260   2.08236
   Y14        1.45301   0.00026   0.00000   0.00808   0.00845   1.46146
   Z14        3.88789  -0.00039   0.00000   0.00012   0.00016   3.88805
   X15        1.82832   0.00802   0.00000   0.00216   0.00144   1.82976
   Y15        4.94403   0.00056   0.00000  -0.00194  -0.00158   4.94245
   Z15        4.01075  -0.00033   0.00000  -0.00016  -0.00011   4.01064
   X16        0.48438   0.00530   0.00000  -0.00452  -0.00524   0.47914
   Y16       -1.71547  -0.00757   0.00000  -0.00748  -0.00712  -1.72259
   Z16        3.85548  -0.00047   0.00000  -0.00004   0.00000   3.85548
         Item               Value     Threshold  Converged?
 Maximum Force            0.050951     0.000015     NO 
 RMS     Force            0.017514     0.000010     NO 
 Maximum Displacement     0.017754     0.000060     NO 
 RMS     Displacement     0.007202     0.000040     NO 
 Predicted change in Energy=-4.480281D-03
 GradGradGradGradGradGradGradGradGradGradGradGradGradGradGradGradGradGrad

                          Input orientation:                          
 ---------------------------------------------------------------------
 Center     Atomic      Atomic             Coordinates (Angstroms)
 Number     Number       Type             X           Y           Z
 ---------------------------------------------------------------------
      1          6           0       -3.062886    0.154307    2.218272
      2          6           0       -1.539351    0.193295    2.153437
      3          6           0       -0.854241    1.553953    2.167353
      4          6           0       -1.730770    2.799946    2.245330
      5          6           0       -3.084579    2.683211    2.300307
      6          6           0       -3.775804    1.310411    2.286269
      7          1           0       -3.571255   -0.790822    2.210014
      8          1           0       -3.685942    3.570172    2.354831
      9          1           0       -4.846868    1.264523    2.331258
     10          6           0       -0.816549   -0.949421    2.085435
     11          1           0       -1.306291   -1.901939    2.076131
     12          1           0       -1.274240    3.771146    2.256673
     13          6           0        0.494702    1.654778    2.112073
     14          1           0        1.101935    0.773370    2.057468
     15          1           0        0.968268    2.615431    2.122337
     16          1           0        0.253552   -0.911554    2.040230
 ---------------------------------------------------------------------
                    Distance matrix (angstroms):
                    1          2          3          4          5
     1  C    0.000000
     2  C    1.525412   0.000000
     3  C    2.615285   1.523470   0.000000
     4  C    2.962207   2.615285   1.525412   0.000000
     5  C    2.530327   2.934107   2.503460   1.359945   0.000000
     6  C    1.359945   2.503460   2.934107   2.530327   1.537065
     7  H    1.073209   2.258389   3.589144   4.035127   3.509119
     8  H    3.474906   4.006458   3.481209   2.104266   1.072990
     9  H    2.104266   3.481209   4.006458   3.474906   2.262586
    10  C    2.506371   1.353835   2.504998   3.862528   4.287908
    11  H    2.708132   2.109573   3.486526   4.724038   4.923024
    12  H    4.035127   3.589144   2.258389   1.073209   2.112542
    13  C    3.862528   2.504998   1.353835   2.506371   3.728855
    14  H    4.213649   2.705936   2.109031   3.488055   4.607968
    15  H    4.724038   3.486526   2.109573   2.708132   4.057319
    16  H    3.488055   2.109031   2.705936   4.213649   4.912545
                    6          7          8          9         10
     6  C    0.000000
     7  H    2.112542   0.000000
     8  H    2.262586   4.364905   0.000000
     9  H    1.072990   2.422052   2.581534   0.000000
    10  C    3.728855   2.762078   5.360290   4.604938   0.000000
    11  H    4.057319   2.526374   5.973643   4.756812   1.071085
    12  H    3.509119   5.107838   2.422052   4.364905   4.745794
    13  C    4.287908   4.745793   4.604938   5.360290   2.915809
    14  H    4.912545   4.930382   5.552864   5.975320   2.578638
    15  H    4.923024   5.676047   4.756812   5.973643   3.986866
    16  H    4.607968   3.830477   5.975320   5.552864   1.071725
                   11         12         13         14         15
    11  H    0.000000
    12  H    5.676047   0.000000
    13  C    3.986866   2.762078   0.000000
    14  H    3.599608   3.830477   1.071725   0.000000
    15  H    5.057903   2.526374   1.071085   1.848043   0.000000
    16  H    1.848043   4.930382   2.578638   1.886536   3.599608
                   16
    16  H    0.000000
 Symmetry turned off by external request.
 Stoichiometry    C8H8
 Framework group  C1[X(C8H8)]
 Deg. of freedom    42
 Full point group                 C1      NOp   1
 Rotational constants (GHZ):           3.1014191           2.2819667           1.3146624
 Standard basis: VSTO-6G (5D, 7F)
    40 basis functions,   240 primitive gaussians,    40 cartesian basis functions
    20 alpha electrons       20 beta electrons
       nuclear repulsion energy       184.8797492304 Hartrees.
 Integral buffers will be    131072 words long.
 Regular integral format.
 Two-electron integral symmetry is turned off.
 Do NDO integrals.
 One-electron integrals computed using PRISM.
 NBasis=    40 RedAO= F EigKep=  0.00D+00  NBF=    40
 NBsUse=    40 1.00D-04 EigRej=  0.00D+00 NBFU=    40
 Initial guess from the checkpoint file:  "C:\Users\al6323\OneDrive - Imperial College London\Desktop\TSR20251114\o-xylyene_opt+freq.chk"
 B after Tr=    -0.001544    0.000776    0.000092
         Rot=    1.000000    0.000000    0.000000    0.000000 Ang=   0.00 deg.
 Keep J ints in memory in canonical form, NReq=863731.
 Overlap will be assumed to be unity.
 Requested convergence on RMS density matrix=1.00D-08 within  32 cycles.
 Requested convergence on MAX density matrix=1.00D-06.
 Requested convergence on             energy=1.00D-06.
 No special actions if energy rises.
 SCF Done:  E(RPM6) =  0.101745879875     A.U. after   11 cycles
            NFock= 10  Conv=0.23D-08     -V/T= 1.0016
 QCSCF skips out because SCF is already converged.
 Calling FoFJK, ICntrl=      2127 FMM=F ISym2X=0 I1Cent= 0 IOpClX= 0 NMat=1 NMatS=1 NMatT=0.
 -------------------------------------------------------------------
 Center     Atomic                   Forces (Hartrees/Bohr)
 Number     Number              X              Y              Z
 -------------------------------------------------------------------
      1        6           0.029254072    0.035540287   -0.000129122
      2        6          -0.016310921    0.010016049    0.001028325
      3        6          -0.017767926    0.007122378    0.000999218
      4        6          -0.011126300   -0.044656850   -0.000949557
      5        6           0.005725625   -0.044354502   -0.001670480
      6        6           0.039052996    0.021835081   -0.000993957
      7        1           0.003547946   -0.007104923   -0.000381691
      8        1          -0.008977519   -0.000052770    0.000387775
      9        1          -0.005307203    0.007236639    0.000462237
     10        6          -0.019596697    0.022388750    0.001568160
     11        1           0.003832575   -0.005873840   -0.000354608
     12        1           0.007823360    0.001386237   -0.000294923
     13        6          -0.029667980    0.002386741    0.001363477
     14        1           0.008104033    0.000521287   -0.000334810
     15        1           0.007003730    0.000424216   -0.000290197
     16        1           0.004410209   -0.006814781   -0.000409844
 -------------------------------------------------------------------
 Cartesian Forces:  Max     0.044656850 RMS     0.015324726

 GradGradGradGradGradGradGradGradGradGradGradGradGradGradGradGradGradGrad
 Berny optimization.
 Search for a local minimum.
 Step number   2 out of a maximum of  100
 All quantities printed in internal units (Hartrees-Bohrs-Radians)
 Update second derivatives using D2CorN and points    1    2
 DE= -4.48D-03 DEPred=-4.48D-03 R= 9.99D-01
 TightC=F SS=  1.41D+00  RLast= 4.99D-02 DXNew= 8.4090D-02 1.4969D-01
 Trust test= 9.99D-01 RLast= 4.99D-02 DXMaxT set to 8.41D-02
 ITU=  1  0
 Linear search step of   0.100 exceeds DXMaxT=   0.084 but not scaled.
 Quartic linear search produced a step of  2.00000.
 B after Tr=     0.000000    0.000000    0.000000
         Rot=    1.000000    0.000000    0.000000    0.000000 Ang=   0.00 deg.
 Variable       Old X    -DE/DX   Delta X   Delta X   Delta X     New X
                                 (Linear)    (Quad)   (Total)
    X1       -5.78802   0.02925   0.02374   0.00000   0.02374  -5.76428
    Y1        0.29160   0.03554   0.02762   0.00000   0.02762   0.31922
    Z1        4.19193  -0.00013  -0.00014   0.00000  -0.00014   4.19178
    X2       -2.90895  -0.01631  -0.00989   0.00000  -0.00989  -2.91884
    Y2        0.36528   0.01002   0.01491   0.00000   0.01491   0.38019
    Z2        4.06941   0.00103   0.00091   0.00000   0.00091   4.07031
    X3       -1.61428  -0.01777  -0.01788   0.00000  -0.01788  -1.63216
    Y3        2.93655   0.00712  -0.00095   0.00000  -0.00095   2.93560
    Z3        4.09570   0.00100   0.00074   0.00000   0.00074   4.09645
    X4       -3.27068  -0.01113  -0.00805   0.00000  -0.00805  -3.27873
    Y4        5.29113  -0.04466  -0.03551   0.00000  -0.03551   5.25562
    Z4        4.24306  -0.00095  -0.00079   0.00000  -0.00079   4.24227
    X5       -5.82901   0.00573  -0.00299   0.00000  -0.00299  -5.83200
    Y5        5.07053  -0.04435  -0.02973   0.00000  -0.02973   5.04081
    Z5        4.34695  -0.00167  -0.00082   0.00000  -0.00082   4.34613
    X6       -7.13523   0.03905   0.02211   0.00000   0.02211  -7.11313
    Y6        2.47632   0.02184   0.02011   0.00000   0.02011   2.49643
    Z6        4.32042  -0.00099  -0.00031   0.00000  -0.00031   4.32011
    X7       -6.74869   0.00355   0.02733   0.00000   0.02733  -6.72136
    Y7       -1.49444  -0.00710   0.01190   0.00000   0.01190  -1.48253
    Z7        4.17632  -0.00038  -0.00080   0.00000  -0.00080   4.17552
    X8       -6.96542  -0.00898  -0.01203   0.00000  -0.01203  -6.97745
    Y8        6.74665  -0.00005  -0.02222   0.00000  -0.02222   6.72442
    Z8        4.44999   0.00039  -0.00019   0.00000  -0.00019   4.44980
    X9       -9.15925  -0.00531   0.01069   0.00000   0.01069  -9.14856
    Y9        2.38960   0.00724   0.02290   0.00000   0.02290   2.41250
    Z9        4.40544   0.00046   0.00027   0.00000   0.00027   4.40571
   X10       -1.54305  -0.01960  -0.01813   0.00000  -0.01813  -1.56118
   Y10       -1.79415   0.02239   0.01579   0.00000   0.01579  -1.77836
   Z10        3.94090   0.00157   0.00129   0.00000   0.00129   3.94219
   X11       -2.46853   0.00383   0.00426   0.00000   0.00426  -2.46427
   Y11       -3.59414  -0.00587  -0.00043   0.00000  -0.00043  -3.59457
   Z11        3.92332  -0.00035  -0.00020   0.00000  -0.00020   3.92312
   X12       -2.40796   0.00782   0.00672   0.00000   0.00672  -2.40124
   Y12        7.12643   0.00139  -0.02903   0.00000  -0.02903   7.09740
   Z12        4.26449  -0.00029  -0.00122   0.00000  -0.00122   4.26327
   X13        0.93485  -0.02967  -0.02349   0.00000  -0.02349   0.91136
   Y13        3.12708   0.00239   0.00514   0.00000   0.00514   3.13222
   Z13        3.99124   0.00136   0.00118   0.00000   0.00118   3.99242
   X14        2.08236   0.00810   0.00520   0.00000   0.00520   2.08755
   Y14        1.46146   0.00052   0.01689   0.00000   0.01689   1.47835
   Z14        3.88805  -0.00033   0.00032   0.00000   0.00032   3.88837
   X15        1.82976   0.00700   0.00288   0.00000   0.00288   1.83265
   Y15        4.94245   0.00042  -0.00316   0.00000  -0.00316   4.93928
   Z15        4.01064  -0.00029  -0.00023   0.00000  -0.00023   4.01041
   X16        0.47914   0.00441  -0.01048   0.00000  -0.01048   0.46867
   Y16       -1.72259  -0.00681  -0.01424   0.00000  -0.01424  -1.73682
   Z16        3.85548  -0.00041   0.00000   0.00000   0.00000   3.85547
         Item               Value     Threshold  Converged?
 Maximum Force            0.044657     0.000015     NO 
 RMS     Force            0.015325     0.000010     NO 
 Maximum Displacement     0.035508     0.000060     NO 
 RMS     Displacement     0.014404     0.000040     NO 
 Predicted change in Energy=-7.263264D-03
 GradGradGradGradGradGradGradGradGradGradGradGradGradGradGradGradGradGrad

                          Input orientation:                          
 ---------------------------------------------------------------------
 Center     Atomic      Atomic             Coordinates (Angstroms)
 Number     Number       Type             X           Y           Z
 ---------------------------------------------------------------------
      1          6           0       -3.050326    0.168923    2.218196
      2          6           0       -1.544585    0.201186    2.153917
      3          6           0       -0.863700    1.553451    2.167747
      4          6           0       -1.735030    2.781157    2.244912
      5          6           0       -3.086161    2.667479    2.299871
      6          6           0       -3.764105    1.321055    2.286103
      7          1           0       -3.556791   -0.784523    2.209589
      8          1           0       -3.692309    3.558411    2.354730
      9          1           0       -4.841212    1.276640    2.331401
     10          6           0       -0.826142   -0.941068    2.086119
     11          1           0       -1.304036   -1.902166    2.076026
     12          1           0       -1.270683    3.755784    2.256026
     13          6           0        0.482273    1.657500    2.112700
     14          1           0        1.104686    0.782309    2.057636
     15          1           0        0.969794    2.613756    2.122218
     16          1           0        0.248008   -0.919088    2.040229
 ---------------------------------------------------------------------
                    Distance matrix (angstroms):
                    1          2          3          4          5
     1  C    0.000000
     2  C    1.507458   0.000000
     3  C    2.588589   1.514072   0.000000
     4  C    2.924804   2.588590   1.507458   0.000000
     5  C    2.500147   2.912106   2.489548   1.357018   0.000000
     6  C    1.357018   2.489548   2.912106   2.500147   1.507533
     7  H    1.079648   2.241360   3.566596   4.004264   3.485106
     8  H    3.452450   3.990489   3.472154   2.108820   1.078973
     9  H    2.108820   3.472154   3.990489   3.452450   2.239560
    10  C    2.489281   1.351111   2.496137   3.834873   4.263214
    11  H    2.712776   2.118495   3.484767   4.706144   4.909963
    12  H    4.004264   3.566596   2.241360   1.079648   2.117142
    13  C    3.834873   2.496137   1.351111   2.489281   3.713330
    14  H    4.203111   2.713965   2.116915   3.477707   4.601711
    15  H    4.706144   3.484767   2.118495   2.712776   4.060200
    16  H    3.477707   2.116915   2.713965   4.203111   4.903832
                    6          7          8          9         10
     6  C    0.000000
     7  H    2.117142   0.000000
     8  H    2.239560   4.347471   0.000000
     9  H    1.078973   2.431660   2.554800   0.000000
    10  C    3.713330   2.737918   5.341571   4.593384   0.000000
    11  H    4.060200   2.518307   5.966525   4.762524   1.073403
    12  H    3.485106   5.083584   2.431660   4.347471   4.720900
    13  C    4.263214   4.720900   4.593384   5.341571   2.909504
    14  H    4.903832   4.920103   5.550330   5.972688   2.588230
    15  H    4.909963   5.660910   4.762524   5.966525   3.982896
    16  H    4.601711   3.810943   5.972688   5.550330   1.075355
                   11         12         13         14         15
    11  H    0.000000
    12  H    5.660910   0.000000
    13  C    3.982896   2.737918   0.000000
    14  H    3.606755   3.810943   1.075354   0.000000
    15  H    5.056282   2.518307   1.073403   1.837543   0.000000
    16  H    1.837543   4.920103   2.588230   1.904981   3.606755
                   16
    16  H    0.000000
 Symmetry turned off by external request.
 Stoichiometry    C8H8
 Framework group  C1[X(C8H8)]
 Deg. of freedom    42
 Full point group                 C1      NOp   1
 Rotational constants (GHZ):           3.1481545           2.3028699           1.3299867
 Standard basis: VSTO-6G (5D, 7F)
    40 basis functions,   240 primitive gaussians,    40 cartesian basis functions
    20 alpha electrons       20 beta electrons
       nuclear repulsion energy       185.4692968123 Hartrees.
 Integral buffers will be    131072 words long.
 Regular integral format.
 Two-electron integral symmetry is turned off.
 Do NDO integrals.
 One-electron integrals computed using PRISM.
 NBasis=    40 RedAO= F EigKep=  0.00D+00  NBF=    40
 NBsUse=    40 1.00D-04 EigRej=  0.00D+00 NBFU=    40
 Initial guess from the checkpoint file:  "C:\Users\al6323\OneDrive - Imperial College London\Desktop\TSR20251114\o-xylyene_opt+freq.chk"
 B after Tr=    -0.003087    0.001553    0.000184
         Rot=    1.000000    0.000000    0.000000    0.000000 Ang=   0.00 deg.
 Keep J ints in memory in canonical form, NReq=863731.
 Overlap will be assumed to be unity.
 Requested convergence on RMS density matrix=1.00D-08 within  32 cycles.
 Requested convergence on MAX density matrix=1.00D-06.
 Requested convergence on             energy=1.00D-06.
 No special actions if energy rises.
 SCF Done:  E(RPM6) =  0.945510027730E-01 A.U. after   11 cycles
            NFock= 10  Conv=0.56D-08     -V/T= 1.0015
 QCSCF skips out because SCF is already converged.
 Calling FoFJK, ICntrl=      2127 FMM=F ISym2X=0 I1Cent= 0 IOpClX= 0 NMat=1 NMatS=1 NMatT=0.
 -------------------------------------------------------------------
 Center     Atomic                   Forces (Hartrees/Bohr)
 Number     Number              X              Y              Z
 -------------------------------------------------------------------
      1        6           0.020310972    0.025363358   -0.000067586
      2        6          -0.010922069    0.007244580    0.000705790
      3        6          -0.012329791    0.004448876    0.000677558
      4        6          -0.008277653   -0.031414989   -0.000648445
      5        6           0.004665854   -0.029657209   -0.001153269
      6        6           0.026611481    0.013927640   -0.000707813
      7        1           0.003513719   -0.004482647   -0.000296120
      8        1          -0.006711331   -0.000849558    0.000263929
      9        1          -0.003316551    0.005892642    0.000332790
     10        6          -0.014172173    0.015893994    0.001124539
     11        1           0.002851793   -0.004038213   -0.000253193
     12        1           0.005695831   -0.000148871   -0.000251870
     13        6          -0.021216646    0.001903295    0.000981378
     14        1           0.005773201    0.001071582   -0.000216057
     15        1           0.004944265    0.000117544   -0.000210694
     16        1           0.002579098   -0.005272025   -0.000280937
 -------------------------------------------------------------------
 Cartesian Forces:  Max     0.031414989 RMS     0.010651466

 GradGradGradGradGradGradGradGradGradGradGradGradGradGradGradGradGradGrad
 Berny optimization.
 Search for a local minimum.
 Step number   3 out of a maximum of  100
 All quantities printed in internal units (Hartrees-Bohrs-Radians)
 Update second derivatives using D2CorN and points    2    3
 ITU=  0  1  0
 Linear search step of   0.200 exceeds DXMaxT=   0.084 scaled by   0.843
 Quartic linear search produced a step of  1.68531.
 B after Tr=     0.000000    0.000000    0.000000
         Rot=    1.000000    0.000000    0.000000    0.000000 Ang=   0.00 deg.
 Variable       Old X    -DE/DX   Delta X   Delta X   Delta X     New X
                                 (Linear)    (Quad)   (Total)
    X1       -5.76428   0.02031   0.04000   0.00000   0.04000  -5.72428
    Y1        0.31922   0.02536   0.04655   0.00000   0.04655   0.36577
    Z1        4.19178  -0.00007  -0.00024   0.00000  -0.00024   4.19154
    X2       -2.91884  -0.01092  -0.01667   0.00000  -0.01667  -2.93551
    Y2        0.38019   0.00724   0.02513   0.00000   0.02513   0.40532
    Z2        4.07031   0.00071   0.00153   0.00000   0.00153   4.07184
    X3       -1.63216  -0.01233  -0.03013   0.00000  -0.03013  -1.66228
    Y3        2.93560   0.00445  -0.00160   0.00000  -0.00160   2.93400
    Z3        4.09645   0.00068   0.00126   0.00000   0.00126   4.09770
    X4       -3.27873  -0.00828  -0.01357   0.00000  -0.01357  -3.29230
    Y4        5.25562  -0.03141  -0.05984   0.00000  -0.05984   5.19578
    Z4        4.24227  -0.00065  -0.00133   0.00000  -0.00133   4.24094
    X5       -5.83200   0.00467  -0.00504   0.00000  -0.00504  -5.83704
    Y5        5.04081  -0.02966  -0.05010   0.00000  -0.05010   4.99070
    Z5        4.34613  -0.00115  -0.00139   0.00000  -0.00139   4.34474
    X6       -7.11313   0.02661   0.03726   0.00000   0.03726  -7.07587
    Y6        2.49643   0.01393   0.03390   0.00000   0.03390   2.53033
    Z6        4.32011  -0.00071  -0.00053   0.00000  -0.00053   4.31958
    X7       -6.72136   0.00351   0.04606   0.00000   0.04606  -6.67530
    Y7       -1.48253  -0.00448   0.02006   0.00000   0.02006  -1.46247
    Z7        4.17552  -0.00030  -0.00135   0.00000  -0.00135   4.17416
    X8       -6.97745  -0.00671  -0.02027   0.00000  -0.02027  -6.99773
    Y8        6.72442  -0.00085  -0.03745   0.00000  -0.03745   6.68697
    Z8        4.44980   0.00026  -0.00032   0.00000  -0.00032   4.44947
    X9       -9.14856  -0.00332   0.01801   0.00000   0.01801  -9.13055
    Y9        2.41250   0.00589   0.03859   0.00000   0.03859   2.45109
    Z9        4.40571   0.00033   0.00046   0.00000   0.00046   4.40616
   X10       -1.56118  -0.01417  -0.03055   0.00000  -0.03055  -1.59173
   Y10       -1.77836   0.01589   0.02660   0.00000   0.02660  -1.75176
   Z10        3.94219   0.00112   0.00218   0.00000   0.00218   3.94437
   X11       -2.46427   0.00285   0.00718   0.00000   0.00718  -2.45709
   Y11       -3.59457  -0.00404  -0.00072   0.00000  -0.00072  -3.59530
   Z11        3.92312  -0.00025  -0.00033   0.00000  -0.00033   3.92279
   X12       -2.40124   0.00570   0.01133   0.00000   0.01133  -2.38992
   Y12        7.09740  -0.00015  -0.04893   0.00000  -0.04893   7.04848
   Z12        4.26327  -0.00025  -0.00206   0.00000  -0.00206   4.26121
   X13        0.91136  -0.02122  -0.03958   0.00000  -0.03958   0.87178
   Y13        3.13222   0.00190   0.00867   0.00000   0.00867   3.14089
   Z13        3.99242   0.00098   0.00200   0.00000   0.00200   3.99442
   X14        2.08755   0.00577   0.00876   0.00000   0.00876   2.09631
   Y14        1.47835   0.00107   0.02847   0.00000   0.02847   1.50682
   Z14        3.88837  -0.00022   0.00053   0.00000   0.00053   3.88890
   X15        1.83265   0.00494   0.00486   0.00000   0.00486   1.83751
   Y15        4.93928   0.00012  -0.00533   0.00000  -0.00533   4.93395
   Z15        4.01041  -0.00021  -0.00038   0.00000  -0.00038   4.01003
   X16        0.46867   0.00258  -0.01766   0.00000  -0.01766   0.45101
   Y16       -1.73682  -0.00527  -0.02400   0.00000  -0.02400  -1.76082
   Z16        3.85547  -0.00028   0.00000   0.00000   0.00000   3.85547
         Item               Value     Threshold  Converged?
 Maximum Force            0.031415     0.000015     NO 
 RMS     Force            0.010651     0.000010     NO 
 Maximum Displacement     0.059841     0.000060     NO 
 RMS     Displacement     0.024275     0.000040     NO 
 Predicted change in Energy=-6.610722D-03
 GradGradGradGradGradGradGradGradGradGradGradGradGradGradGradGradGradGrad

                          Input orientation:                          
 ---------------------------------------------------------------------
 Center     Atomic      Atomic             Coordinates (Angstroms)
 Number     Number       Type             X           Y           Z
 ---------------------------------------------------------------------
      1          6           0       -3.029159    0.193555    2.218067
      2          6           0       -1.553405    0.214485    2.154725
      3          6           0       -0.879643    1.552605    2.168411
      4          6           0       -1.742210    2.749490    2.244208
      5          6           0       -3.088828    2.640966    2.299137
      6          6           0       -3.744389    1.338994    2.285823
      7          1           0       -3.532415   -0.773906    2.208872
      8          1           0       -3.703038    3.538592    2.354561
      9          1           0       -4.831679    1.297062    2.331642
     10          6           0       -0.842310   -0.926990    2.087272
     11          1           0       -1.300235   -1.902548    2.075849
     12          1           0       -1.264689    3.729893    2.254935
     13          6           0        0.461327    1.662086    2.113755
     14          1           0        1.109321    0.797375    2.057918
     15          1           0        0.972367    2.610933    2.122016
     16          1           0        0.238664   -0.931786    2.040228
 ---------------------------------------------------------------------
                    Distance matrix (angstroms):
                    1          2          3          4          5
     1  C    0.000000
     2  C    1.477261   0.000000
     3  C    2.543600   1.498235   0.000000
     4  C    2.861769   2.543600   1.477261   0.000000
     5  C    2.449480   2.875097   2.466195   1.352100   0.000000
     6  C    1.352100   2.466195   2.875098   2.449480   1.457761
     7  H    1.090565   2.212765   3.528667   3.952265   3.444745
     8  H    3.414969   3.963652   3.456928   2.116531   1.089063
     9  H    2.116531   3.456928   3.963652   3.414969   2.201060
    10  C    2.460699   1.346541   2.481204   3.788266   4.221616
    11  H    2.720855   2.133576   3.481889   4.676018   4.887990
    12  H    3.952265   3.528667   2.212765   1.090565   2.124900
    13  C    3.788265   2.481204   1.346541   2.460699   3.687298
    14  H    4.185362   2.727497   2.130389   3.460735   4.591455
    15  H    4.676018   3.481889   2.133576   2.720856   4.065166
    16  H    3.460734   2.130389   2.727497   4.185362   4.889150
                    6          7          8          9         10
     6  C    0.000000
     7  H    2.124900   0.000000
     8  H    2.201060   4.318330   0.000000
     9  H    1.089063   2.447870   2.509744   0.000000
    10  C    3.687298   2.697200   5.310050   4.573969   0.000000
    11  H    4.065166   2.504826   5.954590   4.772214   1.077748
    12  H    3.444745   5.042709   2.447870   4.318330   4.679004
    13  C    4.221616   4.679004   4.573969   5.310050   2.898877
    14  H    4.889150   4.902797   5.546265   5.968257   2.604450
    15  H    4.887990   5.635400   4.772214   5.954590   3.976325
    16  H    4.591455   3.778148   5.968257   5.546265   1.082007
                   11         12         13         14         15
    11  H    0.000000
    12  H    5.635400   0.000000
    13  C    3.976325   2.697200   0.000000
    14  H    3.618821   3.778148   1.082007   0.000000
    15  H    5.053550   2.504827   1.077748   1.819851   0.000000
    16  H    1.819851   4.902797   2.604449   1.936066   3.618821
                   16
    16  H    0.000000
 Symmetry turned off by external request.
 Stoichiometry    C8H8
 Framework group  C1[X(C8H8)]
 Deg. of freedom    42
 Full point group                 C1      NOp   1
 Rotational constants (GHZ):           3.2287668           2.3386694           1.3562828
 Standard basis: VSTO-6G (5D, 7F)
    40 basis functions,   240 primitive gaussians,    40 cartesian basis functions
    20 alpha electrons       20 beta electrons
       nuclear repulsion energy       186.4831612120 Hartrees.
 Integral buffers will be    131072 words long.
 Regular integral format.
 Two-electron integral symmetry is turned off.
 Do NDO integrals.
 One-electron integrals computed using PRISM.
 NBasis=    40 RedAO= F EigKep=  0.00D+00  NBF=    40
 NBsUse=    40 1.00D-04 EigRej=  0.00D+00 NBFU=    40
 Initial guess from the checkpoint file:  "C:\Users\al6323\OneDrive - Imperial College London\Desktop\TSR20251114\o-xylyene_opt+freq.chk"
 B after Tr=    -0.005203    0.002617    0.000309
         Rot=    1.000000    0.000000    0.000000    0.000000 Ang=   0.00 deg.
 Keep J ints in memory in canonical form, NReq=863731.
 Overlap will be assumed to be unity.
 Requested convergence on RMS density matrix=1.00D-08 within  32 cycles.
 Requested convergence on MAX density matrix=1.00D-06.
 Requested convergence on             energy=1.00D-06.
 No special actions if energy rises.
 SCF Done:  E(RPM6) =  0.883330458068E-01 A.U. after   12 cycles
            NFock= 11  Conv=0.16D-08     -V/T= 1.0014
 QCSCF skips out because SCF is already converged.
 Calling FoFJK, ICntrl=      2127 FMM=F ISym2X=0 I1Cent= 0 IOpClX= 0 NMat=1 NMatS=1 NMatT=0.
 -------------------------------------------------------------------
 Center     Atomic                   Forces (Hartrees/Bohr)
 Number     Number              X              Y              Z
 -------------------------------------------------------------------
      1        6           0.003184463    0.007421518    0.000099898
      2        6           0.000021552    0.001854696    0.000058394
      3        6          -0.001477632   -0.001122484    0.000028102
      4        6          -0.004065857   -0.006978275   -0.000047445
      5        6           0.005112960    0.000794577   -0.000196252
      6        6           0.002408360   -0.004577151   -0.000251291
      7        1           0.003279957   -0.000181290   -0.000148054
      8        1          -0.002970759   -0.001946266    0.000066514
      9        1          -0.000206330    0.003544053    0.000122565
     10        6          -0.004732085    0.004412833    0.000346803
     11        1           0.001215776   -0.000841948   -0.000079718
     12        1           0.002100175   -0.002524378   -0.000172086
     13        6          -0.006365612    0.001168390    0.000313618
     14        1           0.001717708    0.002049932   -0.000008768
     15        1           0.001401005   -0.000474038   -0.000075963
     16        1          -0.000623683   -0.002600169   -0.000056319
 -------------------------------------------------------------------
 Cartesian Forces:  Max     0.007421518 RMS     0.002663401

 GradGradGradGradGradGradGradGradGradGradGradGradGradGradGradGradGradGrad
 Berny optimization.
 Search for a local minimum.
 Step number   4 out of a maximum of  100
 All quantities printed in internal units (Hartrees-Bohrs-Radians)
 Update second derivatives using D2CorN and points    3    4
 ITU=  0  0  1  0
     Eigenvalues ---    0.00209   0.00501   0.00962   0.01007   0.01056
     Eigenvalues ---    0.01451   0.01635   0.02115   0.04153   0.04633
     Eigenvalues ---    0.04710   0.05274   0.06026   0.06835   0.07162
     Eigenvalues ---    0.07314   0.07825   0.10045   0.10201   0.13638
     Eigenvalues ---    0.15217   0.16353   0.17674   0.21586   0.23371
     Eigenvalues ---    0.24220   0.31736   0.32149   0.33194   0.43817
     Eigenvalues ---    0.45139   0.55787   0.58075   0.63721   0.65066
     Eigenvalues ---    0.66314   0.69176   0.70745   1.24068   1.30798
     Eigenvalues ---    1.31742   1.34524
 RFO step:  Lambda=-1.65242151D-03 EMin= 2.09162194D-03
 Quartic linear search produced a step of  0.24685.
 Maximum step size (   0.084) exceeded in Quadratic search.
    -- Step size scaled by   0.355
 B after Tr=    -0.000049    0.000025    0.000003
         Rot=    1.000000    0.000000    0.000000    0.000000 Ang=   0.00 deg.
 Variable       Old X    -DE/DX   Delta X   Delta X   Delta X     New X
                                 (Linear)    (Quad)   (Total)
    X1       -5.72428   0.00318   0.00987   0.00263   0.01246  -5.71182
    Y1        0.36577   0.00742   0.01149   0.00222   0.01373   0.37950
    Z1        4.19154   0.00010  -0.00006  -0.00004  -0.00010   4.19144
    X2       -2.93551   0.00002  -0.00411   0.00607   0.00191  -2.93360
    Y2        0.40532   0.00185   0.00620   0.00044   0.00667   0.41199
    Z2        4.07184   0.00006   0.00038  -0.00025   0.00013   4.07197
    X3       -1.66228  -0.00148  -0.00744   0.00326  -0.00423  -1.66651
    Y3        2.93400  -0.00112  -0.00039  -0.00514  -0.00551   2.92849
    Z3        4.09770   0.00003   0.00031  -0.00031   0.00001   4.09771
    X4       -3.29230  -0.00407  -0.00335  -0.00021  -0.00361  -3.29591
    Y4        5.19578  -0.00698  -0.01477  -0.00343  -0.01818   5.17760
    Z4        4.24094  -0.00005  -0.00033  -0.00010  -0.00043   4.24051
    X5       -5.83704   0.00511  -0.00124   0.00265   0.00135  -5.83568
    Y5        4.99070   0.00079  -0.01237   0.00762  -0.00473   4.98598
    Z5        4.34474  -0.00020  -0.00034   0.00013  -0.00021   4.34453
    X6       -7.07587   0.00241   0.00920  -0.00454   0.00460  -7.07126
    Y6        2.53033  -0.00458   0.00837  -0.00666   0.00173   2.53206
    Z6        4.31958  -0.00025  -0.00013  -0.00002  -0.00014   4.31943
    X7       -6.67530   0.00328   0.01137   0.02500   0.03632  -6.63898
    Y7       -1.46247  -0.00018   0.00495  -0.00652  -0.00154  -1.46401
    Z7        4.17416  -0.00015  -0.00033  -0.00129  -0.00162   4.17254
    X8       -6.99773  -0.00297  -0.00500  -0.01596  -0.02102  -7.01874
    Y8        6.68697  -0.00195  -0.00925  -0.00864  -0.01786   6.66911
    Z8        4.44947   0.00007  -0.00008   0.00042   0.00034   4.44982
    X9       -9.13055  -0.00021   0.00445  -0.00257   0.00183  -9.12872
    Y9        2.45109   0.00354   0.00953   0.01796   0.02751   2.47860
    Z9        4.40616   0.00012   0.00011   0.00069   0.00080   4.40697
   X10       -1.59173  -0.00473  -0.00754  -0.01106  -0.01865  -1.61039
   Y10       -1.75176   0.00441   0.00657  -0.00872  -0.00213  -1.75389
   Z10        3.94437   0.00035   0.00054   0.00020   0.00074   3.94511
   X11       -2.45709   0.00122   0.00177  -0.02334  -0.02162  -2.47871
   Y11       -3.59530  -0.00084  -0.00018  -0.00272  -0.00287  -3.59817
   Z11        3.92279  -0.00008  -0.00008   0.00093   0.00085   3.92363
   X12       -2.38992   0.00210   0.00280   0.02014   0.02288  -2.36703
   Y12        7.04848  -0.00252  -0.01208  -0.01618  -0.02823   7.02025
   Z12        4.26121  -0.00017  -0.00051  -0.00139  -0.00190   4.25931
   X13        0.87178  -0.00637  -0.00977   0.00042  -0.00940   0.86238
   Y13        3.14089   0.00117   0.00214   0.01408   0.01624   3.15713
   Z13        3.99442   0.00031   0.00049   0.00043   0.00093   3.99535
   X14        2.09631   0.00172   0.00216   0.02323   0.02534   2.12165
   Y14        1.50682   0.00205   0.00703   0.03364   0.04069   1.54751
   Z14        3.88890  -0.00001   0.00013   0.00007   0.00021   3.88911
   X15        1.83751   0.00140   0.00120  -0.01172  -0.01057   1.82693
   Y15        4.93395  -0.00047  -0.00132   0.02035   0.01906   4.95301
   Z15        4.01003  -0.00008  -0.00009   0.00116   0.00107   4.01110
   X16        0.45101  -0.00062  -0.00436  -0.01319  -0.01760   0.43341
   Y16       -1.76082  -0.00260  -0.00592  -0.03869  -0.04459  -1.80541
   Z16        3.85547  -0.00006   0.00000  -0.00067  -0.00067   3.85481
         Item               Value     Threshold  Converged?
 Maximum Force            0.007422     0.000015     NO 
 RMS     Force            0.002663     0.000010     NO 
 Maximum Displacement     0.044586     0.000060     NO 
 RMS     Displacement     0.015314     0.000040     NO 
 Predicted change in Energy=-7.755745D-04
 GradGradGradGradGradGradGradGradGradGradGradGradGradGradGradGradGradGrad

                          Input orientation:                          
 ---------------------------------------------------------------------
 Center     Atomic      Atomic             Coordinates (Angstroms)
 Number     Number       Type             X           Y           Z
 ---------------------------------------------------------------------
      1          6           0       -3.022566    0.200822    2.218014
      2          6           0       -1.552395    0.218017    2.154794
      3          6           0       -0.881879    1.549691    2.168414
      4          6           0       -1.744120    2.739868    2.243981
      5          6           0       -3.088111    2.638465    2.299026
      6          6           0       -3.741952    1.339909    2.285746
      7          1           0       -3.513195   -0.774723    2.208013
      8          1           0       -3.714160    3.529140    2.354742
      9          1           0       -4.830711    1.311620    2.332067
     10          6           0       -0.852179   -0.928119    2.087664
     11          1           0       -1.311675   -1.904069    2.076296
     12          1           0       -1.252580    3.714955    2.253930
     13          6           0        0.456352    1.670680    2.114247
     14          1           0        1.122730    0.818909    2.058027
     15          1           0        0.966772    2.621021    2.122582
     16          1           0        0.229350   -0.955379    2.039875
 ---------------------------------------------------------------------
                    Distance matrix (angstroms):
                    1          2          3          4          5
     1  C    0.000000
     2  C    1.471629   0.000000
     3  C    2.530701   1.491018   0.000000
     4  C    2.842860   2.530701   1.471630   0.000000
     5  C    2.439869   2.870156   2.463727   1.348935   0.000000
     6  C    1.348935   2.463727   2.870156   2.439869   1.453936
     7  H    1.092019   2.198431   3.511167   3.934879   3.440760
     8  H    3.402160   3.959386   3.460455   2.125152   1.090111
     9  H    2.125152   3.460455   3.959386   3.402160   2.190494
    10  C    2.449913   1.344781   2.479303   3.778111   4.214805
    11  H    2.716210   2.137138   3.481619   4.667043   4.882617
    12  H    3.934879   3.511167   2.198431   1.092019   2.128389
    13  C    3.778111   2.479303   1.344780   2.449913   3.678855
    14  H    4.194175   2.743489   2.136512   3.455936   4.593479
    15  H    4.667042   3.481619   2.137138   2.716210   4.058758
    16  H    3.455936   2.136512   2.743489   4.194175   4.897798
                    6          7          8          9         10
     6  C    0.000000
     7  H    2.128389   0.000000
     8  H    2.190494   4.311050   0.000000
     9  H    1.090111   2.470641   2.482860   0.000000
    10  C    3.678855   2.668149   5.303717   4.572185   0.000000
    11  H    4.058758   2.477795   5.947203   4.773856   1.078770
    12  H    3.440760   5.026898   2.470641   4.311050   4.663271
    13  C    4.214805   4.663271   4.572185   5.303717   2.909762
    14  H    4.897798   4.904484   5.552377   5.980077   2.636902
    15  H    4.882617   5.622142   4.773856   5.947203   3.988257
    16  H    4.593479   3.750674   5.980077   5.552377   1.082928
                   11         12         13         14         15
    11  H    0.000000
    12  H    5.622142   0.000000
    13  C    3.988257   2.668149   0.000000
    14  H    3.652571   3.750674   1.082928   0.000000
    15  H    5.066547   2.477795   1.078770   1.809999   0.000000
    16  H    1.809999   4.904484   2.636902   1.986595   3.652570
                   16
    16  H    0.000000
 Symmetry turned off by external request.
 Stoichiometry    C8H8
 Framework group  C1[X(C8H8)]
 Deg. of freedom    42
 Full point group                 C1      NOp   1
 Rotational constants (GHZ):           3.2379888           2.3495487           1.3615680
 Standard basis: VSTO-6G (5D, 7F)
    40 basis functions,   240 primitive gaussians,    40 cartesian basis functions
    20 alpha electrons       20 beta electrons
       nuclear repulsion energy       186.6954554226 Hartrees.
 Integral buffers will be    131072 words long.
 Regular integral format.
 Two-electron integral symmetry is turned off.
 Do NDO integrals.
 One-electron integrals computed using PRISM.
 NBasis=    40 RedAO= F EigKep=  0.00D+00  NBF=    40
 NBsUse=    40 1.00D-04 EigRej=  0.00D+00 NBFU=    40
 Initial guess from the checkpoint file:  "C:\Users\al6323\OneDrive - Imperial College London\Desktop\TSR20251114\o-xylyene_opt+freq.chk"
 B after Tr=    -0.001390    0.000699    0.000082
         Rot=    1.000000    0.000000    0.000000    0.000000 Ang=   0.00 deg.
 Keep J ints in memory in canonical form, NReq=863731.
 Overlap will be assumed to be unity.
 Requested convergence on RMS density matrix=1.00D-08 within  32 cycles.
 Requested convergence on MAX density matrix=1.00D-06.
 Requested convergence on             energy=1.00D-06.
 No special actions if energy rises.
 SCF Done:  E(RPM6) =  0.875659017675E-01 A.U. after   10 cycles
            NFock=  9  Conv=0.70D-08     -V/T= 1.0014
 QCSCF skips out because SCF is already converged.
 Calling FoFJK, ICntrl=      2127 FMM=F ISym2X=0 I1Cent= 0 IOpClX= 0 NMat=1 NMatS=1 NMatT=0.
 -------------------------------------------------------------------
 Center     Atomic                   Forces (Hartrees/Bohr)
 Number     Number              X              Y              Z
 -------------------------------------------------------------------
      1        6          -0.000544419    0.001774602    0.000080539
      2        6           0.001607307   -0.000140467   -0.000074298
      3        6           0.001070566   -0.001206273   -0.000085118
      4        6          -0.001750326   -0.000620585    0.000056006
      5        6           0.002337635    0.003510163    0.000011201
      6        6          -0.001427572   -0.003967856   -0.000065342
      7        1           0.001888253    0.000603618   -0.000062530
      8        1          -0.001211071   -0.001318977    0.000010267
      9        1           0.000338191    0.001757950    0.000041683
     10        6          -0.001268655    0.001004137    0.000087240
     11        1           0.000447702   -0.000158896   -0.000024506
     12        1           0.000640151   -0.001875141   -0.000087923
     13        6          -0.001562768    0.000419880    0.000081273
     14        1           0.000245950    0.001682464    0.000043282
     15        1           0.000394452   -0.000264628   -0.000025589
     16        1          -0.001205394   -0.001199992    0.000013815
 -------------------------------------------------------------------
 Cartesian Forces:  Max     0.003967856 RMS     0.001237124

 GradGradGradGradGradGradGradGradGradGradGradGradGradGradGradGradGradGrad
 Berny optimization.
 Search for a local minimum.
 Step number   5 out of a maximum of  100
 All quantities printed in internal units (Hartrees-Bohrs-Radians)
 Update second derivatives using D2CorN and points    1    2    3    4    5

 DE= -7.67D-04 DEPred=-7.76D-04 R= 9.89D-01
 TightC=F SS=  1.41D+00  RLast= 1.06D-01 DXNew= 1.4142D-01 3.1830D-01
 Trust test= 9.89D-01 RLast= 1.06D-01 DXMaxT set to 1.41D-01
 ITU=  1  0  0  1  0
     Eigenvalues ---    0.00211   0.00501   0.00962   0.01056   0.01061
     Eigenvalues ---    0.01451   0.01636   0.02115   0.04152   0.04614
     Eigenvalues ---    0.04816   0.05274   0.06008   0.06841   0.07172
     Eigenvalues ---    0.07313   0.07838   0.09989   0.10203   0.13638
     Eigenvalues ---    0.15218   0.16356   0.17449   0.21595   0.23372
     Eigenvalues ---    0.24216   0.31767   0.32149   0.33195   0.43817
     Eigenvalues ---    0.45215   0.55876   0.58075   0.63732   0.65125
     Eigenvalues ---    0.66422   0.69182   0.70769   1.24075   1.30794
     Eigenvalues ---    1.31742   1.34522
 RFO step:  Lambda=-3.40629122D-04 EMin= 2.11027101D-03
 Quartic linear search produced a step of  0.59984.
 B after Tr=     0.000780   -0.000392   -0.000047
         Rot=    1.000000    0.000000    0.000000    0.000000 Ang=   0.00 deg.
 Variable       Old X    -DE/DX   Delta X   Delta X   Delta X     New X
                                 (Linear)    (Quad)   (Total)
    X1       -5.71182  -0.00054   0.00747  -0.00176   0.00649  -5.70533
    Y1        0.37950   0.00177   0.00824  -0.00176   0.00608   0.38558
    Z1        4.19144   0.00008  -0.00006   0.00002  -0.00009   4.19135
    X2       -2.93360   0.00161   0.00114   0.01096   0.01288  -2.92072
    Y2        0.41199  -0.00014   0.00400  -0.00583  -0.00222   0.40978
    Z2        4.07197  -0.00007   0.00008  -0.00066  -0.00063   4.07134
    X3       -1.66651   0.00107  -0.00253   0.01121   0.00946  -1.65705
    Y3        2.92849  -0.00121  -0.00330  -0.00532  -0.00902   2.91947
    Z3        4.09771  -0.00009   0.00000  -0.00066  -0.00070   4.09701
    X4       -3.29591  -0.00175  -0.00217   0.00036  -0.00102  -3.29693
    Y4        5.17760  -0.00062  -0.01091   0.00247  -0.00883   5.16877
    Z4        4.24051   0.00006  -0.00026   0.00006  -0.00024   4.24027
    X5       -5.83568   0.00234   0.00081   0.00131   0.00290  -5.83278
    Y5        4.98598   0.00351  -0.00283   0.00981   0.00658   4.99256
    Z5        4.34453   0.00001  -0.00013   0.00026   0.00009   4.34461
    X6       -7.07126  -0.00143   0.00276  -0.00710  -0.00356  -7.07482
    Y6        2.53206  -0.00397   0.00104  -0.00690  -0.00625   2.52581
    Z6        4.31943  -0.00007  -0.00009   0.00009  -0.00005   4.31939
    X7       -6.63898   0.00189   0.02179   0.01679   0.03936  -6.59962
    Y7       -1.46401   0.00060  -0.00093  -0.00406  -0.00538  -1.46939
    Z7        4.17254  -0.00006  -0.00097  -0.00086  -0.00188   4.17066
    X8       -7.01874  -0.00121  -0.01261  -0.01379  -0.02561  -7.04436
    Y8        6.66911  -0.00132  -0.01071  -0.00669  -0.01780   6.65131
    Z8        4.44982   0.00001   0.00021   0.00039   0.00054   4.45036
    X9       -9.12872   0.00034   0.00110  -0.00284  -0.00096  -9.12968
    Y9        2.47860   0.00176   0.01650   0.01505   0.03116   2.50977
    Z9        4.40697   0.00004   0.00048   0.00061   0.00104   4.40801
   X10       -1.61039  -0.00127  -0.01119  -0.01104  -0.02145  -1.63184
   Y10       -1.75389   0.00100  -0.00128  -0.01881  -0.02048  -1.77437
   Z10        3.94511   0.00009   0.00044  -0.00012   0.00027   3.94539
   X11       -2.47871   0.00045  -0.01297  -0.03469  -0.04688  -2.52558
   Y11       -3.59817  -0.00016  -0.00172  -0.00699  -0.00911  -3.60728
   Z11        3.92363  -0.00002   0.00051   0.00128   0.00174   3.92537
   X12       -2.36703   0.00064   0.01373   0.01327   0.02777  -2.33926
   Y12        7.02025  -0.00188  -0.01693  -0.01106  -0.02838   6.99187
   Z12        4.25931  -0.00009  -0.00114  -0.00093  -0.00212   4.25719
   X13        0.86238  -0.00156  -0.00564   0.00854   0.00368   0.86606
   Y13        3.15713   0.00042   0.00974   0.02008   0.02942   3.18655
   Z13        3.99535   0.00008   0.00056   0.00027   0.00078   3.99613
   X14        2.12165   0.00025   0.01520   0.02947   0.04545   2.16710
   Y14        1.54751   0.00168   0.02441   0.04440   0.06841   1.61593
   Z14        3.88911   0.00004   0.00012   0.00015   0.00022   3.88933
   X15        1.82693   0.00039  -0.00634  -0.01505  -0.02061   1.80632
   Y15        4.95301  -0.00026   0.01143   0.03201   0.04305   4.99606
   Z15        4.01110  -0.00003   0.00064   0.00168   0.00228   4.01338
   X16        0.43341  -0.00121  -0.01056  -0.01811  -0.02789   0.40552
   Y16       -1.80541  -0.00120  -0.02674  -0.05011  -0.07724  -1.88265
   Z16        3.85481   0.00001  -0.00040  -0.00082  -0.00127   3.85354
         Item               Value     Threshold  Converged?
 Maximum Force            0.003968     0.000015     NO 
 RMS     Force            0.001237     0.000010     NO 
 Maximum Displacement     0.077243     0.000060     NO 
 RMS     Displacement     0.023063     0.000040     NO 
 Predicted change in Energy=-3.033528D-04
 GradGradGradGradGradGradGradGradGradGradGradGradGradGradGradGradGradGrad

                          Input orientation:                          
 ---------------------------------------------------------------------
 Center     Atomic      Atomic             Coordinates (Angstroms)
 Number     Number       Type             X           Y           Z
 ---------------------------------------------------------------------
      1          6           0       -3.019132    0.204041    2.217968
      2          6           0       -1.545578    0.216844    2.154460
      3          6           0       -0.876874    1.544918    2.168044
      4          6           0       -1.744661    2.735194    2.243854
      5          6           0       -3.086575    2.641947    2.299071
      6          6           0       -3.743835    1.336601    2.285722
      7          1           0       -3.492369   -0.777569    2.207018
      8          1           0       -3.727714    3.519722    2.355029
      9          1           0       -4.831221    1.328111    2.332617
     10          6           0       -0.863532   -0.938959    2.087808
     11          1           0       -1.336480   -1.908890    2.077218
     12          1           0       -1.237882    3.699936    2.252809
     13          6           0        0.458298    1.686251    2.114662
     14          1           0        1.146780    0.855112    2.058145
     15          1           0        0.955864    2.643802    2.123787
     16          1           0        0.214591   -0.996254    2.039205
 ---------------------------------------------------------------------
                    Distance matrix (angstroms):
                    1          2          3          4          5
     1  C    0.000000
     2  C    1.474977   0.000000
     3  C    2.527788   1.486987   0.000000
     4  C    2.834023   2.527788   1.474977   0.000000
     5  C    2.440187   2.876926   2.470509   1.346283   0.000000
     6  C    1.346283   2.470509   2.876926   2.440187   1.461539
     7  H    1.089785   2.186691   3.498039   3.923691   3.444740
     8  H    3.393319   3.963704   3.473054   2.135496   1.088430
     9  H    2.135496   3.473054   3.963704   3.393319   2.184280
    10  C    2.443359   1.343693   2.485208   3.781553   4.220123
    11  H    2.704737   2.137390   3.485438   4.664965   4.880796
    12  H    3.923691   3.498039   2.186691   1.089785   2.130527
    13  C    3.781553   2.485208   1.343693   2.443359   3.676070
    14  H    4.219509   2.768656   2.140815   3.453929   4.601317
    15  H    4.664965   3.485438   2.137390   2.704737   4.046238
    16  H    3.453929   2.140815   2.768656   4.219509   4.919526
                    6          7          8          9         10
     6  C    0.000000
     7  H    2.130527   0.000000
     8  H    2.184280   4.306275   0.000000
     9  H    1.088430   2.498437   2.453852   0.000000
    10  C    3.676070   2.636483   5.306108   4.576253   0.000000
    11  H    4.046238   2.438153   5.938435   4.770389   1.079147
    12  H    3.444740   5.013269   2.498437   4.306275   4.656899
    13  C    4.220123   4.656899   4.576253   5.306108   2.939333
    14  H    4.919526   4.920317   5.563181   6.002962   2.694610
    15  H    4.880796   5.612440   4.770389   5.938434   4.018416
    16  H    4.601317   3.717195   6.002962   5.563181   1.080737
                   11         12         13         14         15
    11  H    0.000000
    12  H    5.612440   0.000000
    13  C    4.018416   2.636483   0.000000
    14  H    3.715730   3.717195   1.080737   0.000000
    15  H    5.097451   2.438153   1.079147   1.800047   0.000000
    16  H    1.800047   4.920316   2.694610   2.072895   3.715730
                   16
    16  H    0.000000
 Symmetry turned off by external request.
 Stoichiometry    C8H8
 Framework group  C1[X(C8H8)]
 Deg. of freedom    42
[...]

 Dipole polarizability, Alpha (input orientation).
 (esu units = cm**3 , SI units = C**2 m**2 J**-1)
 Alpha(0;0):
               (au)            (10**-24 esu)      (10**-40 SI)
   iso        0.740803D+02      0.109776D+02      0.122142D+02
   aniso      0.917057D+02      0.135894D+02      0.151202D+02
   xx         0.106045D+03      0.157143D+02      0.174845D+02
   yx        -0.204516D+01     -0.303061D+00     -0.337201D+00
   yy         0.102899D+03      0.152481D+02      0.169658D+02
   zx        -0.410052D+01     -0.607635D+00     -0.676085D+00
   zy         0.297096D+01      0.440251D+00      0.489846D+00
   zz         0.132963D+02      0.197031D+01      0.219226D+01

 First dipole hyperpolarizability, Beta (input orientation).
 ||, _|_  parallel and perpendicular components, (z) with respect to z axis,
 vector components x,y,z.  Values do not include the 1/n! factor of 1/2.
 (esu units = statvolt**-1 cm**4 , SI units = C**3 m**3 J**-2)
 Beta(0;0,0):
               (au)            (10**-30 esu)      (10**-50 SI)
   || (z)     0.210862D+01      0.182168D-01      0.676099D-02
   _|_(z)     0.702872D+00      0.607227D-02      0.225366D-02
   x         -0.177185D+03     -0.153074D+01     -0.568118D+00
   y          0.891096D+02      0.769837D+00      0.285717D+00
   z          0.105431D+02      0.910840D-01      0.338049D-01
   ||         0.397221D+02      0.343168D+00      0.127363D+00
   xxx       -0.410299D+02     -0.354466D+00     -0.131557D+00
   xxy        0.592857D+01      0.512182D-01      0.190091D-01
   yxy       -0.138914D+02     -0.120010D+00     -0.445407D-01
   yyy        0.216796D+02      0.187295D+00      0.695126D-01
   xxz        0.161716D+01      0.139710D-01      0.518521D-02
   yxz       -0.483646D+00     -0.417833D-02     -0.155074D-02
   yyz        0.116662D+01      0.100787D-01      0.374060D-02
   zxz       -0.414038D+01     -0.357697D-01     -0.132756D-01
   zyz        0.209504D+01      0.180995D-01      0.671745D-02
   zzz        0.730581D+00      0.631165D-02      0.234251D-02

 ----------------------------------------------------------------------

 Dipole orientation:
     6          2.49303416         -3.73576143          5.48296085
     6          3.07437122         -2.60567594          3.00551578
     6          4.36018390         -0.10613939          3.00551574
     6          4.94151964          1.02394687          5.48296076
     6          4.34753342         -0.13072441          7.67176292
     6          3.08701929         -2.58108951          7.67176297
     1          1.55086478         -5.56728281          5.45358955
     1          4.77939639          0.70879396          9.49967717
     1          2.65515550         -3.42060739          9.49967724
     6          2.44613541         -3.82692151          0.86998447
     1          1.51302956         -5.64081893          0.84730257
     1          5.88368885          2.85546833          5.45358940
     6          4.98842092          1.11510550          0.86998439
     1          4.61508041          0.38934906         -1.00054067
     1          5.92152684          2.92900288          0.84730246
     1          2.81947705         -3.10116568         -1.00054061

 Electric dipole moment (dipole orientation):
 (Debye = 10**-18 statcoulomb cm , SI units = C m)
                  (au)            (Debye)         (10**-30 SI)
   Tot        0.971098D-01      0.246828D+00      0.823331D+00
   x          0.000000D+00      0.000000D+00      0.000000D+00
   y          0.000000D+00      0.000000D+00      0.000000D+00
   z          0.971098D-01      0.246828D+00      0.823331D+00

 Dipole polarizability, Alpha (dipole orientation).
 (esu units = cm**3 , SI units = C**2 m**2 J**-1)
 Alpha(0;0):
               (au)            (10**-24 esu)      (10**-40 SI)
   iso        0.740803D+02      0.109776D+02      0.122142D+02
   aniso      0.917057D+02      0.135894D+02      0.151202D+02
   xx         0.316210D+02      0.468575D+01      0.521360D+01
   yx         0.361530D+02      0.535732D+01      0.596082D+01
   yy         0.833021D+02      0.123441D+02      0.137347D+02
   zx        -0.303204D-04     -0.449302D-05     -0.499916D-05
   zy         0.000000D+00      0.000000D+00      0.000000D+00
   zz         0.107318D+03      0.159028D+02      0.176943D+02

 First dipole hyperpolarizability, Beta (dipole orientation).
 ||, _|_  parallel and perpendicular components, (z) with respect to z axis,
 vector components x,y,z.  Values do not include the 1/n! factor of 1/2.
 (esu units = statvolt**-1 cm**4 , SI units = C**3 m**3 J**-2)
 Beta(0;0,0):
               (au)            (10**-30 esu)      (10**-50 SI)
   || (z)     0.397221D+02      0.343168D+00      0.127363D+00
   _|_(z)     0.132407D+02      0.114389D+00      0.424545D-01
   x          0.760819D-03      0.657288D-05      0.243946D-05
   y          0.199995D-02      0.172780D-04      0.641256D-05
   z          0.198610D+03      0.171584D+01      0.636817D+00
   ||         0.397221D+02      0.343168D+00      0.127363D+00
   xxx        0.119317D-04      0.103080D-06      0.382572D-07
   xxy        0.761627D-04      0.657986D-06      0.244205D-06
   yxy        0.249564D-03      0.215604D-05      0.800192D-06
   yyy        0.622144D-03      0.537484D-05      0.199482D-05
   xxz        0.703046D+01      0.607377D-01      0.225422D-01
   yxz        0.480869D+01      0.415433D-01      0.154184D-01
   yyz        0.139045D+02      0.120124D+00      0.445829D-01
   zxz        0.000000D+00      0.000000D+00      0.000000D+00
   zyz       -0.316571D-04     -0.273493D-06     -0.101504D-06
   zzz        0.452685D+02      0.391085D+00      0.145147D+00

 ----------------------------------------------------------------------
 Unable to Open any file for archive entry.
 1|1|UNPC-SKCH-134-020|Freq|RPM6|ZDO|C8H8|AL6323|14-Nov-2025|0||#N Geom
 =AllCheck Guess=TCheck SCRF=Check GenChk RPM6/ZDO Freq||Title Card Req
 uired||0,1|C,-3.0176403749,0.2041692392,2.2179071369|C,-1.5456286702,0
 .2166110396,2.1544542412|C,-0.8767169438,1.5450977826,2.168042146|C,-1
 .7438751073,2.733920804,2.2437790072|C,-3.0862001958,2.6398823915,2.29
 89890043|C,-3.7419524524,1.3375306977,2.2856701798|H,-3.4939153406,-0.
 7762447229,2.2071268448|H,-3.7244792549,3.5200603693,2.3549005731|H,-4
 .8295651349,1.3253130416,2.3324560186|C,-0.8642819342,-0.9394871756,2.
 0878239472|H,-1.3389988308,-1.9089464591,2.0773261472|H,-1.2398681363,
 3.7003881913,2.2529090281|C,0.4582759189,1.6871678808,2.1146923842|H,1
 .1471157046,0.8573372151,2.0582027146|H,0.9544087745,2.6458569633,2.12
 3915887|H,0.213002588,-0.9978499882,2.0392223798||Version=EM64W-G16Rev
 C.01|HF=0.0872902|RMSD=4.056e-010|RMSF=3.306e-006|ZeroPoint=0.124083|T
 hermal=0.1312169|ETot=0.2185071|HTot=0.2194513|GTot=0.1780321|Dipole=-
 0.0866343,0.0435688,0.0051551|DipoleDeriv=-0.0861671,-0.0841812,-0.007
 655,-0.1220619,-0.295003,0.002261,-0.0088687,0.0006305,-0.1999977,0.21
 53459,-0.0595376,-0.0067008,0.1560362,-0.1033598,-0.013446,0.0002204,-
 0.0040941,0.1047342,-0.0365483,-0.0307784,0.0051475,-0.2463237,0.14823
 86,0.0120764,-0.0017662,0.0027429,0.1050383,-0.1221696,-0.1487344,-0.0
 081628,-0.1109007,-0.259048,0.0029296,-0.00696,0.0045616,-0.1999544,-0
 .3116875,0.0936013,0.0103014,0.1010492,-0.0038412,0.0000924,0.0105378,
 0.0004015,-0.1438474,-0.206245,0.1792511,0.0084743,0.171799,-0.1091485
 ,-0.0063537,0.0082437,-0.0066643,-0.1439745,0.1211766,0.105866,0.00501
 03,0.0888423,0.2393003,-0.0012603,0.0044616,-0.0019952,0.1581575,0.182
 4895,-0.0698337,-0.0032961,-0.1696508,0.1940354,0.0085104,-0.0064965,0
 .0041997,0.1585407,0.3046373,-0.0790717,-0.0088907,0.0207485,0.072033,
 -0.0036608,-0.0057045,0.0006581,0.1583928,-0.4149146,0.1343972,0.00240
 1,-0.0090326,-0.5159979,-0.0014387,-0.0021918,-0.0076598,-0.4590733,0.
 1267109,0.1061049,0.0060533,0.0040793,0.3489846,0.0049919,0.0027811,0.
 0005697,0.1876985,0.1041932,0.076237,0.0047965,0.0932624,0.2562737,-0.
 0009077,0.005336,-0.000175,0.158178,-0.5401742,-0.1019149,0.0002558,0.
 0415102,-0.3908897,0.000381,0.00486,0.0065972,-0.4589218,0.2488545,0.0
 06446,-0.0021937,-0.1606647,0.0540722,0.0024971,-0.0075468,-0.0047311,
 0.1936913,0.2174199,0.0713466,0.0010033,0.1733769,0.2583822,-0.0052571
 ,0.0042682,-0.0008413,0.1875888,0.1969742,-0.1991434,-0.0065364,-0.032
 0277,0.105898,-0.0014206,-0.0011879,0.0058139,0.1937539|Polar=106.0450
 876,-2.0451575,102.8993656,-4.1005222,2.9709642,13.2963026|HyperPolar=
 -41.029854,5.9285721,-13.8913543,21.6795741,1.6171622,-0.4836462,1.166
 6184,-4.1403796,2.0950398,0.7305813|PG=C01 [X(C8H8)]|NImag=0||0.623386
 79,-0.15961001,0.74391202,-0.02625576,0.02641479,0.13808037,-0.2501777
 7,-0.01967076,0.00725360,0.65964489,-0.02005685,-0.05280278,0.00137076
 ,-0.14132055,0.80434612,0.00724121,0.00135390,-0.06868614,-0.02678098,
 0.02721935,0.14876554,-0.02460036,-0.02934550,0.00040691,-0.09546712,-
 0.05631363,-0.00065987,0.88881538,-0.01904363,-0.00560603,0.00043871,-
 0.08235592,-0.19826927,-0.00057171,0.02862513,0.57545261,0.00073732,0.
 00088543,0.00647270,-0.00149516,-0.00170109,-0.06904011,-0.03127022,0.
 01250620,0.14848840,-0.01020121,0.00478073,0.00061526,0.01081016,-0.00
 308666,-0.00028718,-0.10385228,0.08883969,0.00438602,0.85444091,-0.000
 75881,-0.00720456,-0.00021250,0.00721643,-0.04097430,-0.00183456,0.088
 45423,-0.19895017,-0.00802279,0.01173226,0.51313755,0.00043760,-0.0004
 5276,0.00041372,0.00004334,-0.00138783,0.00642977,0.00437360,-0.008039
 53,-0.06886314,-0.03078318,0.01158176,0.13780107,0.02386234,-0.0066361
 1,-0.00098189,-0.00720353,0.00592974,0.00033976,-0.05534252,0.02665746
 ,0.00351716,-0.54427822,-0.04728240,0.01958059,0.83284466,0.00985949,-
 0.06780952,-0.00279887,-0.00144048,0.00093737,0.00021296,0.02125951,0.
 00211909,-0.00104769,-0.01352080,-0.07277413,0.00011001,0.03543618,0.5
 4247145,-0.00045282,-0.00208330,0.00608589,0.00010333,-0.00010686,-0.0
 0376267,0.00334403,-0.00128200,0.00584776,0.02066339,0.00157460,-0.058
 75700,-0.02910633,0.01150911,0.13726729,-0.21109530,0.23355814,0.01413
 414,-0.04123175,0.03172358,0.00306757,-0.00409919,0.00086145,0.0000425
 2,-0.03685992,-0.03517035,0.00073707,-0.10625558,-0.10328259,-0.001604
 52,0.61196149,0.19979524,-0.40555626,-0.01981467,0.03712159,-0.0119743
 0,-0.00218769,0.00823196,-0.00216332,-0.00030607,-0.05166640,-0.007162
 36,0.00181481,-0.05970524,-0.22707435,-0.00254681,-0.12836580,0.763087
 63,0.01305162,-0.02127918,-0.05915966,0.00324077,-0.00195348,0.0058307
 9,0.00027895,0.00001369,-0.00376632,0.00020809,0.00109919,0.00615925,-
 0.00020711,-0.00065663,-0.06690390,-0.02477796,0.02568917,0.13753428,-
 0.06923541,-0.07341162,-0.00115956,-0.02783964,-0.02530821,0.00070146,
 -0.00282788,0.00080809,0.00020280,0.00009568,0.00018762,0.00000031,-0.
 00076340,0.00129224,0.00043976,0.00677577,0.01175652,0.00036657,0.0964
 0462,-0.07275465,-0.18275397,-0.00136757,-0.01231568,-0.00309434,0.000
 20925,0.00016773,0.00058534,-0.00002861,0.00031547,0.00036722,-0.00000
 072,0.00151576,-0.00206978,-0.00040201,-0.00232846,-0.04332034,-0.0014
 9778,0.08400537,0.23123805,-0.00113852,-0.00133906,-0.04168916,0.00111
 810,0.00077274,0.00701769,0.00018231,-0.00005638,0.00124078,0.00000437
 ,0.00000481,-0.00003692,0.00044699,-0.00039245,0.00838832,-0.00008509,
 -0.00210875,0.00647118,-0.00051557,0.00305253,0.02253460,-0.00092297,-
 0.00155350,0.00004265,0.00002558,-0.00012309,-0.00001042,-0.00260172,-
 0.00008427,0.00048243,-0.03571051,0.02520102,0.00261692,-0.09750460,0.
 08789791,0.00522294,0.00654548,-0.00632782,-0.00017929,0.00020589,-0.0
 0015824,-0.00003304,0.13067323,-0.00161973,-0.00198301,-0.00003209,-0.
 00010060,0.00018463,0.00001426,-0.00038368,-0.00057969,-0.00027721,0.0
 1109054,0.00001219,-0.00067274,0.08788875,-0.15519014,-0.00743959,0.00
 757461,-0.03824380,-0.00178233,0.00020336,-0.00039201,-0.00000731,-0.1
 0412423,0.19508941,0.00004048,-0.00003500,0.00120600,-0.00000961,0.000
 01530,-0.00012326,0.00047309,-0.00029002,0.00855612,0.00216443,-0.0012
 8483,0.00585350,0.00522266,-0.00743994,-0.04254305,0.00026652,-0.00117
 933,0.00704190,-0.00002148,0.00000833,-0.00043740,-0.00801188,0.010036
 81,0.02361282,-0.03005452,0.01528490,0.00205363,-0.00108076,0.00074421
 ,0.00044306,0.00023547,0.00005502,-0.00001384,-0.00008956,-0.00100172,
 0.00002419,-0.02297224,-0.01431479,0.00084498,-0.21896681,-0.00218369,
 0.00760299,0.00051418,0.00078241,-0.00010685,0.00047316,-0.00024340,-0
 .00002434,0.27206570,0.02939507,-0.00563687,-0.00164791,0.00104360,-0.
 00209881,-0.00038786,0.00003249,-0.00002502,0.00000178,-0.00093540,-0.
 00281537,-0.00008847,-0.02821719,-0.00876175,0.00071560,-0.00217457,-0
 .03387458,0.00035735,0.00088178,-0.00028948,0.00003354,-0.00090750,-0.
 00038084,0.00002420,0.00072809,0.05386782,0.00250613,-0.00103582,0.005
 84663,0.00045270,-0.00037510,0.00855432,-0.00001454,0.00000067,-0.0001
 2370,0.00002632,-0.00008555,0.00120502,0.00039919,0.00011260,0.0070775
 7,0.00760323,0.00035772,-0.04239625,-0.00010364,0.00003785,-0.00252252
 ,-0.00004563,-0.00000459,0.00009342,-0.01078281,0.00096008,0.02344195,
 -0.04733146,0.03448021,0.00344094,-0.19282929,0.21555202,0.01276218,0.
 01401867,0.00181398,-0.00033927,-0.00151561,-0.00081072,0.00007798,0.0
 0186164,0.00062457,-0.00005690,-0.00374569,-0.00428905,0.00006068,-0.0
 0236731,0.00029787,0.00009381,-0.00001955,0.00006253,-0.00000313,0.000
 20736,0.00056534,-0.00000178,0.53343944,0.03403275,-0.00927006,-0.0019
 8212,0.21387788,-0.43372345,-0.02132759,-0.00401530,-0.05549396,-0.001
 76125,0.00055611,-0.00347267,-0.00016371,-0.00254156,-0.00259575,0.000
 02424,-0.00141274,0.00658988,0.00024612,-0.00011582,-0.00013209,0.0000
 1441,-0.00008816,0.00022256,0.00001530,-0.00009058,-0.00004199,0.00001
 073,-0.17389266,0.72625679,0.00342664,-0.00200154,0.00629104,0.0127087
 2,-0.02140007,-0.05920865,-0.00052616,-0.00201408,0.00481579,0.0001217
 8,-0.00010446,0.00087149,-0.00015849,-0.00011314,0.00008969,0.00015296
 ,0.00037095,0.00083076,0.00008053,-0.00000356,-0.00042851,-0.00000789,
 0.00000879,-0.00013543,-0.00002287,-0.00001776,-0.00025317,-0.02318849
 ,0.02674722,0.12928408,-0.00011800,0.00113926,-0.00012460,0.00786662,0
 .01224582,0.00033445,-0.00089889,0.00057962,0.00042212,0.00005298,0.00
 030245,-0.00001717,-0.00004163,-0.00003274,-0.00000775,-0.00017372,0.0
 0004323,0.00000660,-0.00072052,0.00047450,0.00006648,0.00000713,-0.000
 04732,0.00000144,0.00006409,0.00002480,0.00001492,-0.07293368,-0.07866
 177,-0.00112788,0.08352022,0.00119238,-0.00112629,0.00003507,-0.003799
 49,-0.04273264,-0.00141488,0.00134943,-0.00209807,-0.00039547,-0.00014
 901,-0.00027328,0.00001590,-0.00011053,-0.00020875,0.00000443,-0.00064
 237,0.00013136,0.00003372,0.00068790,0.00017692,-0.00003893,0.00002941
 ,-0.00007064,-0.00000601,0.00022355,0.00008033,-0.00001951,-0.07585256
 ,-0.18737894,-0.00141105,0.08383804,0.23506317,-0.00012295,0.00003744,
 -0.00382809,-0.00018000,-0.00211083,0.00646545,0.00044714,-0.00036208,
 0.00837992,-0.00003168,-0.00000371,-0.00056543,-0.00001024,0.00000103,
 -0.00019504,-0.00001535,0.00000399,-0.00005097,0.00007330,-0.00002967,
 0.00045597,0.00000392,-0.00000265,0.00007531,0.00002124,-0.00001096,0.
 00038667,-0.00103784,-0.00128918,-0.04077669,-0.00001050,0.00321882,0.
 02139238,0.00003022,0.00026698,0.00000567,-0.00109454,0.00145299,0.000
 14832,0.00612633,0.01287281,0.00045247,-0.07256687,-0.07522542,-0.0010
 7316,-0.03008525,-0.02966338,0.00063729,-0.00295850,-0.00011219,0.0004
 8996,-0.00004951,-0.00004164,-0.00004038,-0.00079929,-0.00019154,-0.00
 008116,-0.00020128,-0.00046023,-0.00002507,0.00014586,0.00042838,0.000
 00061,-0.00004023,0.00001559,0.00001418,0.10307570,0.00013930,0.000432
 75,0.00000897,0.00209347,-0.00114603,-0.00016762,-0.00011996,-0.037019
 86,-0.00140771,-0.07588221,-0.17942662,-0.00112513,-0.01557850,-0.0065
 0366,0.00025765,-0.00033557,0.00012276,-0.00025148,-0.00015311,-0.0001
 9498,0.00003081,-0.00009222,0.00102235,0.00011778,-0.00009863,0.000014
 67,0.00001886,-0.00057401,-0.00036996,0.00001803,0.00003659,-0.0001660
 9,-0.00001572,0.08895243,0.22457498,0.00000158,0.00000348,-0.00003685,
 0.00016881,-0.00013997,0.00123864,0.00003586,-0.00197135,0.00697684,-0
 .00109432,-0.00115363,-0.04168512,0.00108891,0.00086858,0.00651573,0.0
 0048284,-0.00026125,0.00839096,-0.00004392,0.00002600,-0.00094621,-0.0
 0007791,0.00012216,-0.00252092,-0.00001349,0.00003452,-0.00043692,-0.0
 0003149,-0.00002541,-0.00015599,0.00001487,-0.00001478,0.00027326,-0.0
 0064633,0.00262429,0.02252653,-0.00265909,-0.00029250,0.00014419,-0.02
 980483,-0.03651332,0.00033253,-0.55410166,-0.05403131,0.01978703,-0.05
 560370,0.02789835,0.00358857,0.00565443,0.00555807,-0.00003124,-0.0000
 9710,-0.00399390,-0.00012008,-0.00011724,0.00023328,0.00000578,-0.0001
 8061,-0.00037831,-0.00001526,0.00014916,0.00003696,-0.00001122,-0.0034
 5115,0.00231302,0.00028401,0.00018891,0.00047707,-0.00001031,-0.001012
 74,0.00088862,0.00005399,0.82478563,-0.00165840,-0.00233041,-0.0000310
 6,-0.03068355,-0.01172344,0.00079922,-0.05235750,-0.07288703,0.0017929
 0,0.02834605,-0.00100856,-0.00147039,0.00268153,-0.00279933,-0.0002325
 0,-0.00082791,-0.00063880,0.00001260,-0.00076908,-0.00010721,0.0000349
 5,0.00027759,0.00034548,0.00000709,0.00018765,0.00005404,-0.00000197,-
 0.00493242,-0.00538801,-0.00000333,-0.00018095,0.00023138,0.00002814,0
 .00130243,-0.00148504,-0.00009045,0.04216256,0.43526290,0.00010037,-0.
 00009028,0.00087288,0.00051950,0.00105205,0.00486890,0.01984076,0.0018
 6565,-0.05877186,0.00360295,-0.00145102,0.00630110,-0.00012350,-0.0003
 5734,0.00081939,-0.00001856,0.00014999,0.00009204,-0.00002636,-0.00000
 851,-0.00015567,0.00000577,0.00003560,-0.00025268,-0.00000636,0.000004
 50,-0.00013563,0.00005166,-0.00031757,0.00137390,-0.00003137,-0.000000
 40,-0.00040030,0.00006727,-0.00007251,-0.00043016,-0.02889635,0.008042
 95,0.12893177,0.00016613,0.00020397,0.00000315,-0.00173830,-0.00046986
 ,-0.00008343,-0.03663034,0.02434670,0.00266095,-0.00273099,-0.00035053
 ,0.00048195,-0.00008737,0.00034888,0.00000607,0.00004481,-0.00006048,0
 .00001037,0.00001882,-0.00006804,-0.00000671,-0.00013865,0.00008264,-0
 .00002705,-0.00007402,-0.00002084,0.00000288,-0.00144638,-0.00076090,0
 .00003575,-0.00005868,-0.00020400,0.00000945,0.00006002,-0.00008217,-0
 .00000880,-0.11044140,0.09249703,0.00594460,0.14651839,-0.00007281,-0.
 00016142,-0.00000480,-0.00026473,0.00052419,0.00013457,0.00852128,0.00
 228598,-0.00051166,-0.00025217,-0.00020281,-0.00027257,-0.00034520,0.0
 0041672,0.00003488,0.00029565,0.00015002,-0.00001849,0.00006480,0.0000
 9361,0.00000293,0.00008056,-0.00016820,0.00001756,-0.00000585,0.000008
 81,0.00000023,-0.00098538,-0.00118030,0.00000682,0.00027698,0.00025735
 ,-0.00001368,-0.00005703,-0.00005399,0.00000333,0.09427000,-0.14789805
 ,-0.00749212,-0.11176324,0.16942839,-0.00000574,-0.00001689,0.00008772
 ,-0.00007672,0.00014366,-0.00330641,0.00215351,-0.00119800,0.00658543,
 0.00048522,-0.00026844,0.00861064,-0.00001612,0.00000481,-0.00020549,0
 .00002173,-0.00000314,0.00032739,-0.00000249,0.00000866,-0.00008471,-0
 .00002713,0.00001744,-0.00082056,0.00000337,0.00000094,0.00000745,0.00
 002843,-0.00000296,-0.00006075,0.00002485,0.00000708,0.00030877,-0.000
 00803,0.00000441,-0.00008128,0.00600141,-0.00741522,-0.04227467,-0.009
 01536,0.00959787,0.02199827,-0.00023054,-0.00035952,-0.00002615,-0.002
 60409,0.00008529,0.00048053,-0.02884870,-0.03102613,0.00053940,-0.0018
 8254,-0.00011612,-0.00008844,0.00031002,-0.00028379,-0.00002482,-0.000
 08076,-0.00013962,-0.00000951,-0.00014682,-0.00006335,0.00001627,-0.00
 004458,0.00014297,0.00002336,-0.00003460,-0.00000149,0.00000476,0.0000
 7494,0.00039258,-0.00000808,-0.00005162,-0.00010283,-0.00002626,-0.000
 69858,0.0