 Default is to use a total of   8 processors:
                                8 via shared-memory
                                1 via Linda
 Entering Link 1 = C:\G16W\l1.exe PID=     20140.
  
 Copyright (c) 1988-2019, Gaussian, Inc.  All Rights Reserved.
  
 This is part of the Gaussian(R) 16 program.  It is based on
 the Gaussian(R) 09 system (copyright 2009, Gaussian, Inc.),
 the Gaussian(R) 03 system (copyright 2003, Gaussian, Inc.),
 the Gaussian(R) 98 system (copyright 1998, Gaussian, Inc.),
 the Gaussian(R) 94 system (copyright 1995, Gaussian, Inc.),
 the Gaussian 92(TM) system (copyright 1992, Gaussian, Inc.),
 the Gaussian 90(TM) system (copyright 1990, Gaussian, Inc.),
 the Gaussian 88(TM) system (copyright 1988, Gaussian, Inc.),
 the Gaussian 86(TM) system (copyright 1986, Carnegie Mellon
 University), and the Gaussian 82(TM) system (copyright 1983,
 Carnegie Mellon University). Gaussian is a federally registered
 trademark of Gaussian, Inc.
  
 This software contains proprietary and confidential information,
 including trade secrets, belonging to Gaussian, Inc.
  
 This software is provided under written license and may be
 used, copied, transmitted, or stored only in accord with that
 written license.
  
 The following legend is applicable only to US Government
 contracts under FAR:
  
                    RESTRICTED RIGHTS LEGEND
  
 Use, reproduction and disclosure by the US Government is
 subject to restrictions as set forth in subparagraphs (a)
 and (c) of the Commercial Computer Software - Restricted
 Rights clause in FAR 52.227-19.
  
 Gaussian, Inc.
 340 Quinnipiac St., Bldg. 40, Wallingford CT 06492
  
  
 ---------------------------------------------------------------
 Warning -- This program may not be used in any manner that
 competes with the business of Gaussian, Inc. or will provide
 assistance to any competitor of Gaussian, Inc.  The licensee
 of this program is prohibited from giving any competitor of
 Gaussian, Inc. access to this program.  By using this program,
 the user acknowledges that Gaussian, Inc. is engaged in the
 business of creating and licensing software in the field of
 computational chemistry and represents and warrants to the
 licensee that it is not a competitor of Gaussian, Inc. and that
 it will not use this program in any manner prohibited above.
 ---------------------------------------------------------------
  

 Cite this work as:
 Gaussian 16, Revision C.01,
 M. J. Frisch, G. W. Trucks, H. B. Schlegel, G. E. Scuseria, 
 M. A. Robb, J. R. Cheeseman, G. Scalmani, V. Barone, 
 G. A. Petersson, H. Nakatsuji, X. Li, M. Caricato, A. V. Marenich, 
 J. Bloino, B. G. Janesko, R. Gomperts, B. Mennucci, H. P. Hratchian, 
 J. V. Ortiz, A. F. Izmaylov, J. L. Sonnenberg, D. Williams-Young, 
 F. Ding, F. Lipparini, F. Egidi, J. Goings, B. Peng, A. Petrone, 
 T. Henderson, D. Ranasinghe, V. G. Zakrzewski, J. Gao, N. Rega, 
 G. Zheng, W. Liang, M. Hada, M. Ehara, K. Toyota, R. Fukuda, 
 J. Hasegawa, M. Ishida, T. Nakajima, Y. Honda, O. Kitao, H. Nakai, 
 T. Vreven, K. Throssell, J. A. Montgomery, Jr., J. E. Peralta, 
 F. Ogliaro, M. J. Bearpark, J. J. Heyd, E. N. Brothers, K. N. Kudin, 
 V. N. Staroverov, T. A. Keith, R. Kobayashi, J. Normand, 
 K. Raghavachari, A. P. Rendell, J. C. Burant, S. S. Iyengar, 
 J. Tomasi, M. Cossi, J. M. Millam, M. Klene, C. Adamo, R. Cammi, 
 J. W. Ochterski, R. L. Martin, K. Morokuma, O. Farkas, 
 J. B. Foresman, and D. J. Fox, Gaussian, Inc., Wallingford CT, 2019.
 
 ******************************************
 Gaussian 16:  EM64W-G16RevC.01 30-May-2019
                14-Nov-2025 
 ******************************************
 %chk=C:\Users\al6323\OneDrive - Imperial College London\Desktop\TSR20251114\prod
 uct_exo_opt+freq.chk
 Default route: MaxDisk=10GB
 ----------------------------------------------------------------------
 # opt=(calcfc,tight,maxstep=5) freq rpm6 nosymm geom=connectivity scf=
 (xqc,verytight)
 ----------------------------------------------------------------------
 1/7=10,8=5,10=4,18=20,19=15,26=1,38=1,57=2/1,3;
 2/9=110,12=2,15=1,17=6,18=5,40=1/2;
 3/5=2,25=1,41=3900000,71=2,116=1,140=1/1,2,3;
 4/35=1/1;
 5/5=2,8=3,13=1,17=3,35=1,38=5/2,8;
 8/6=4,10=90,11=11/1;
 11/6=1,8=1,9=11,15=111,16=1,31=1/1,2,10;
 10/6=1,13=1,31=1/2;
 6/7=2,8=2,9=2,10=2,28=1/1;
 7/10=1,25=1,30=1/1,2,3,16;
 1/7=10,8=5,10=4,18=20,19=15,26=1/3(2);
 2/9=110,15=1/2;
 99//99;
 2/9=110,15=1/2;
 3/5=2,25=1,41=3900000,71=1,116=1,135=20/1,2,3;
 4/5=5,16=3,35=1/1;
 5/5=2,8=3,13=1,17=3,35=1,38=5/2,8;
 7/30=1/1,2,3,16;
 1/7=10,8=5,18=20,19=15,26=1/3(-5);
 2/9=110,15=1/2;
 6/7=2,8=2,9=2,10=2,19=2,28=1/1;
 99/9=1/99;
 -------------------
 Title Card Required
 -------------------
 Symbolic Z-matrix:
 Charge =  0 Multiplicity = 1
 C                    -5.56946  -1.62027  -0.02506 
 C                    -4.17046  -1.70713   0.10981 
 C                    -3.46415  -0.51645   0.17535 
 C                    -4.14522   0.73357   0.14522 
 C                    -5.51323   0.82266   0.00042 
 C                    -6.22709  -0.38959  -0.09226 
 H                    -1.46283  -0.47232   1.08851 
 H                    -6.15131  -2.54145  -0.08131 
 H                    -3.67033  -2.66909   0.16298 
 C                    -2.07218  -0.11985   0.27703 
 C                    -3.03003   1.69578   0.3925 
 H                    -6.03012   1.77859  -0.03704 
 H                    -7.30876  -0.36133  -0.20762 
 H                    -3.00695   2.21898   1.3553 
 O                    -2.27472   2.18194  -0.54687 
 O                    -0.02959   0.85295  -1.08466 
 S                    -1.43586   0.52101  -1.15873 
 

 GradGradGradGradGradGradGradGradGradGradGradGradGradGradGradGradGradGrad
 Berny optimization.
 Initialization pass.
                           ----------------------------
                           !    Initial Parameters    !
                           ! (Angstroms and Degrees)  !
 --------------------------                            --------------------------
 ! Name  Definition              Value          Derivative Info.                !
 --------------------------------------------------------------------------------
 ! R1    R(1,2)                  1.4082         calculate D2E/DX2 analytically  !
 ! R2    R(1,6)                  1.397          calculate D2E/DX2 analytically  !
 ! R3    R(1,8)                  1.091          calculate D2E/DX2 analytically  !
 ! R4    R(2,3)                  1.386          calculate D2E/DX2 analytically  !
 ! R5    R(2,9)                  1.0855         calculate D2E/DX2 analytically  !
 ! R6    R(3,4)                  1.4238         calculate D2E/DX2 analytically  !
 ! R7    R(3,10)                 1.4509         calculate D2E/DX2 analytically  !
 ! R8    R(4,5)                  1.3785         calculate D2E/DX2 analytically  !
 ! R9    R(4,11)                 1.4935         calculate D2E/DX2 analytically  !
 ! R10   R(5,6)                  1.4099         calculate D2E/DX2 analytically  !
 ! R11   R(5,12)                 1.0874         calculate D2E/DX2 analytically  !
 ! R12   R(6,13)                 1.0882         calculate D2E/DX2 analytically  !
 ! R13   R(7,10)                 1.0743         calculate D2E/DX2 analytically  !
 ! R14   R(10,17)                1.6962         calculate D2E/DX2 analytically  !
 ! R15   R(11,14)                1.096          calculate D2E/DX2 analytically  !
 ! R16   R(11,15)                1.2997         calculate D2E/DX2 analytically  !
 ! R17   R(15,17)                1.9588         calculate D2E/DX2 analytically  !
 ! R18   R(16,17)                1.4468         calculate D2E/DX2 analytically  !
 ! A1    A(2,1,6)              121.7784         calculate D2E/DX2 analytically  !
 ! A2    A(2,1,8)              118.8616         calculate D2E/DX2 analytically  !
 ! A3    A(6,1,8)              119.3598         calculate D2E/DX2 analytically  !
 ! A4    A(1,2,3)              117.2473         calculate D2E/DX2 analytically  !
 ! A5    A(1,2,9)              121.1372         calculate D2E/DX2 analytically  !
 ! A6    A(3,2,9)              121.6153         calculate D2E/DX2 analytically  !
 ! A7    A(2,3,4)              120.6277         calculate D2E/DX2 analytically  !
 ! A8    A(2,3,10)             136.6395         calculate D2E/DX2 analytically  !
 ! A9    A(4,3,10)             102.7328         calculate D2E/DX2 analytically  !
 ! A10   A(3,4,5)              122.2521         calculate D2E/DX2 analytically  !
 ! A11   A(3,4,11)             101.8259         calculate D2E/DX2 analytically  !
 ! A12   A(5,4,11)             135.7852         calculate D2E/DX2 analytically  !
 ! A13   A(4,5,6)              116.9878         calculate D2E/DX2 analytically  !
 ! A14   A(4,5,12)             122.1515         calculate D2E/DX2 analytically  !
 ! A15   A(6,5,12)             120.8601         calculate D2E/DX2 analytically  !
 ! A16   A(1,6,5)              121.0613         calculate D2E/DX2 analytically  !
 ! A17   A(1,6,13)             119.7297         calculate D2E/DX2 analytically  !
 ! A18   A(5,6,13)             119.2059         calculate D2E/DX2 analytically  !
 ! A19   A(3,10,7)             120.4925         calculate D2E/DX2 analytically  !
 ! A20   A(3,10,17)            113.82           calculate D2E/DX2 analytically  !
 ! A21   A(7,10,17)            123.4065         calculate D2E/DX2 analytically  !
 ! A22   A(4,11,14)            117.9503         calculate D2E/DX2 analytically  !
 ! A23   A(4,11,15)            123.7277         calculate D2E/DX2 analytically  !
 ! A24   A(14,11,15)           116.3661         calculate D2E/DX2 analytically  !
 ! A25   A(11,15,17)            99.0598         calculate D2E/DX2 analytically  !
 ! A26   A(10,17,15)            83.9903         calculate D2E/DX2 analytically  !
 ! A27   A(10,17,16)           114.0786         calculate D2E/DX2 analytically  !
 ! A28   A(15,17,16)           101.8717         calculate D2E/DX2 analytically  !
 ! D1    D(6,1,2,3)              0.0653         calculate D2E/DX2 analytically  !
 ! D2    D(6,1,2,9)            179.8787         calculate D2E/DX2 analytically  !
 ! D3    D(8,1,2,3)            179.8727         calculate D2E/DX2 analytically  !
 ! D4    D(8,1,2,9)             -0.314          calculate D2E/DX2 analytically  !
 ! D5    D(2,1,6,5)             -1.3175         calculate D2E/DX2 analytically  !
 ! D6    D(2,1,6,13)           179.3233         calculate D2E/DX2 analytically  !
 ! D7    D(8,1,6,5)            178.8761         calculate D2E/DX2 analytically  !
 ! D8    D(8,1,6,13)            -0.4831         calculate D2E/DX2 analytically  !
 ! D9    D(1,2,3,4)              1.7698         calculate D2E/DX2 analytically  !
 ! D10   D(1,2,3,10)          -178.1954         calculate D2E/DX2 analytically  !
 ! D11   D(9,2,3,4)           -178.0426         calculate D2E/DX2 analytically  !
 ! D12   D(9,2,3,10)             1.9923         calculate D2E/DX2 analytically  !
 ! D13   D(2,3,4,5)             -2.4951         calculate D2E/DX2 analytically  !
 ! D14   D(2,3,4,11)           173.872          calculate D2E/DX2 analytically  !
 ! D15   D(10,3,4,5)           177.4804         calculate D2E/DX2 analytically  !
 ! D16   D(10,3,4,11)           -6.1525         calculate D2E/DX2 analytically  !
 ! D17   D(2,3,10,7)           -56.5623         calculate D2E/DX2 analytically  !
 ! D18   D(2,3,10,17)          106.8544         calculate D2E/DX2 analytically  !
 ! D19   D(4,3,10,7)           123.4685         calculate D2E/DX2 analytically  !
 ! D20   D(4,3,10,17)          -73.1149         calculate D2E/DX2 analytically  !
 ! D21   D(3,4,5,6)              1.2089         calculate D2E/DX2 analytically  !
 ! D22   D(3,4,5,12)          -179.0815         calculate D2E/DX2 analytically  !
 ! D23   D(11,4,5,6)          -173.6888         calculate D2E/DX2 analytically  !
 ! D24   D(11,4,5,12)            6.0208         calculate D2E/DX2 analytically  !
 ! D25   D(3,4,11,14)         -109.905          calculate D2E/DX2 analytically  !
 ! D26   D(3,4,11,15)           86.6134         calculate D2E/DX2 analytically  !
 ! D27   D(5,4,11,14)           65.6879         calculate D2E/DX2 analytically  !
 ! D28   D(5,4,11,15)          -97.7938         calculate D2E/DX2 analytically  !
 ! D29   D(4,5,6,1)              0.6552         calculate D2E/DX2 analytically  !
 ! D30   D(4,5,6,13)          -179.9823         calculate D2E/DX2 analytically  !
 ! D31   D(12,5,6,1)          -179.0583         calculate D2E/DX2 analytically  !
 ! D32   D(12,5,6,13)            0.3042         calculate D2E/DX2 analytically  !
 ! D33   D(3,10,17,15)          82.7445         calculate D2E/DX2 analytically  !
 ! D34   D(3,10,17,16)        -176.9133         calculate D2E/DX2 analytically  !
 ! D35   D(7,10,17,15)        -114.3897         calculate D2E/DX2 analytically  !
 ! D36   D(7,10,17,16)         -14.0474         calculate D2E/DX2 analytically  !
 ! D37   D(4,11,15,17)         -63.562          calculate D2E/DX2 analytically  !
 ! D38   D(14,11,15,17)        132.7172         calculate D2E/DX2 analytically  !
 ! D39   D(11,15,17,10)        -13.5807         calculate D2E/DX2 analytically  !
 ! D40   D(11,15,17,16)       -126.9765         calculate D2E/DX2 analytically  !
 --------------------------------------------------------------------------------
 Trust Radius=5.00D-02 FncErr=1.00D-07 GrdErr=1.00D-07 EigMax=2.50D+02 EigMin=1.00D-04
 Number of steps in this run=     96 maximum allowed number of steps=    102.
 GradGradGradGradGradGradGradGradGradGradGradGradGradGradGradGradGradGrad

                          Input orientation:                          
 ---------------------------------------------------------------------
 Center     Atomic      Atomic             Coordinates (Angstroms)
 Number     Number       Type             X           Y           Z
 ---------------------------------------------------------------------
      1          6           0       -5.569461   -1.620266   -0.025056
      2          6           0       -4.170458   -1.707131    0.109809
      3          6           0       -3.464152   -0.516451    0.175353
      4          6           0       -4.145223    0.733568    0.145222
      5          6           0       -5.513231    0.822660    0.000423
      6          6           0       -6.227089   -0.389587   -0.092264
      7          1           0       -1.462826   -0.472319    1.088509
      8          1           0       -6.151310   -2.541452   -0.081307
      9          1           0       -3.670335   -2.669086    0.162980
     10          6           0       -2.072179   -0.119848    0.277028
     11          6           0       -3.030035    1.695782    0.392495
     12          1           0       -6.030119    1.778594   -0.037044
     13          1           0       -7.308762   -0.361335   -0.207625
     14          1           0       -3.006952    2.218975    1.355295
     15          8           0       -2.274718    2.181944   -0.546872
     16          8           0       -0.029591    0.852949   -1.084662
     17         16           0       -1.435857    0.521006   -1.158730
 ---------------------------------------------------------------------
                    Distance matrix (angstroms):
                    1          2          3          4          5
     1  C    0.000000
     2  C    1.408170   0.000000
     3  C    2.385560   1.385960   0.000000
     4  C    2.756444   2.441086   1.423837   0.000000
     5  C    2.443706   2.866156   2.454087   1.378532   0.000000
     6  C    1.396983   2.450814   2.778765   2.377403   1.409868
     7  H    4.407070   3.132713   2.200252   3.088561   4.389384
     8  H    1.091007   2.157867   3.374511   3.847266   3.425066
     9  H    2.177628   1.085499   2.162523   3.435679   3.951580
    10  C    3.817524   2.636324   1.450937   2.245707   3.578501
    11  C    4.197524   3.600041   2.264858   1.493535   2.661264
    12  H    3.429957   3.953503   3.449135   2.162900   1.087376
    13  H    2.154857   3.429414   3.866750   3.366198   2.160800
    14  H    4.817841   4.280104   3.013942   2.228536   3.172824
    15  O    5.058105   4.376067   3.036066   2.464868   3.554596
    16  O    6.158711   5.012739   3.906290   4.297126   5.590048
    17  S    4.791341   3.748577   2.640090   3.014322   4.249660
                    6          7          8          9         10
     6  C    0.000000
     7  H    4.909101   0.000000
     8  H    2.153227   5.256583   0.000000
     9  H    3.434860   3.248921   2.496238   0.000000
    10  C    4.180001   1.074267   4.757297   3.010934   0.000000
    11  C    3.847715   2.764280   5.284033   4.417549   2.056048
    12  H    2.177810   5.214753   4.321973   5.038894   4.400910
    13  H    1.088174   5.988927   2.471551   4.324491   5.264504
    14  H    4.389682   3.114252   5.883237   5.074922   2.739809
    15  O    4.737159   3.221607   6.128229   5.097463   2.453177
    16  O    6.398260   2.921158   7.071359   5.216930   2.640587
    17  S    4.992237   2.457133   5.724944   4.112967   1.696172
                   11         12         13         14         15
    11  C    0.000000
    12  H    3.031809   0.000000
    13  H    4.785329   2.498664   0.000000
    14  H    1.096014   3.357392   5.254168   0.000000
    15  O    1.299718   3.811253   5.650217   2.038572   0.000000
    16  O    3.448916   6.161222   7.431689   4.084617   2.663840
    17  S    2.515512   4.893562   6.014494   3.416395   1.958768
                   16         17
    16  O    0.000000
    17  S    1.446809   0.000000
 Symmetry turned off by external request.
 Stoichiometry    C8H6O2S
 Framework group  C1[X(C8H6O2S)]
 Deg. of freedom    45
 Full point group                 C1      NOp   1
 Rotational constants (GHZ):           2.5231179           0.7142821           0.6019214
 Standard basis: VSTO-6G (5D, 7F)
    55 basis functions,   336 primitive gaussians,    56 cartesian basis functions
    28 alpha electrons       28 beta electrons
       nuclear repulsion energy       322.8174092638 Hartrees.
 Integral buffers will be    131072 words long.
 Regular integral format.
 Two-electron integral symmetry is turned off.
 Do NDO integrals.
 One-electron integrals computed using PRISM.
 NBasis=    55 RedAO= F EigKep=  0.00D+00  NBF=    55
 NBsUse=    55 1.00D-04 EigRej=  0.00D+00 NBFU=    55
 Nonelectrostatic core Hamiltonian diagonalized for initial guess.
 Keep J ints in memory in canonical form, NReq=1858957.
 Overlap will be assumed to be unity.
 Requested convergence on RMS density matrix=1.00D-08 within  32 cycles.
 Requested convergence on MAX density matrix=1.00D-06.
 Requested convergence on             energy=1.00D-06.
 No special actions if energy rises.
 SCF Done:  E(RPM6) =  0.418345645282E-01 A.U. after   25 cycles
            NFock= 24  Conv=0.45D-08     -V/T= 1.0004
 QCSCF skips out because SCF is already converged.
 Range of M.O.s used for correlation:     1    55
 NBasis=    55 NAE=    28 NBE=    28 NFC=     0 NFV=     0
 NROrb=     55 NOA=    28 NOB=    28 NVA=    27 NVB=    27
 Symmetrizing basis deriv contribution to polar:
 IMax=3 JMax=2 DiffMx= 0.00D+00
 G2DrvN: will do    18 centers at a time, making    1 passes.
 Calling FoFCou, ICntrl=  3107 FMM=F I1Cent=   0 AccDes= 0.00D+00.
 End of G2Drv F.D. properties file   721 does not exist.
 End of G2Drv F.D. properties file   722 does not exist.
 End of G2Drv F.D. properties file   788 does not exist.
          IDoAtm=11111111111111111
          Differentiating once with respect to nuclear coordinates.
          Electric field/nuclear overlap derivatives assumed to be zero.
 Keep J ints in memory in canonical form, NReq=1860754.
          There are    54 degrees of freedom in the 1st order CPHF.  IDoFFX=5 NUNeed=    54.
 LinEq1:  Iter=  0 NonCon=    51 RMS=1.29D-02 Max=1.05D-01 NDo=    51
 AX will form    54 AO Fock derivatives at one time.
 LinEq1:  Iter=  1 NonCon=    51 RMS=5.05D-03 Max=4.69D-02 NDo=    54
 LinEq1:  Iter=  2 NonCon=    51 RMS=1.18D-03 Max=1.66D-02 NDo=    54
 LinEq1:  Iter=  3 NonCon=    51 RMS=3.20D-04 Max=3.87D-03 NDo=    54
 LinEq1:  Iter=  4 NonCon=    51 RMS=9.86D-05 Max=9.01D-04 NDo=    54
 LinEq1:  Iter=  5 NonCon=    51 RMS=3.19D-05 Max=3.10D-04 NDo=    54
 LinEq1:  Iter=  6 NonCon=    51 RMS=8.92D-06 Max=1.01D-04 NDo=    54
 LinEq1:  Iter=  7 NonCon=    51 RMS=2.50D-06 Max=3.43D-05 NDo=    54
 LinEq1:  Iter=  8 NonCon=    49 RMS=6.55D-07 Max=7.02D-06 NDo=    54
 LinEq1:  Iter=  9 NonCon=    40 RMS=2.10D-07 Max=1.76D-06 NDo=    54
 LinEq1:  Iter= 10 NonCon=    20 RMS=4.14D-08 Max=3.38D-07 NDo=    40
 LinEq1:  Iter= 11 NonCon=     2 RMS=1.10D-08 Max=1.13D-07 NDo=    20
 LinEq1:  Iter= 12 NonCon=     0 RMS=2.51D-09 Max=2.08D-08 NDo=     2
 Linear equations converged to 1.000D-08 1.000D-07 after    12 iterations.
 End of Minotr F.D. properties file   721 does not exist.
 End of Minotr F.D. properties file   722 does not exist.
 End of Minotr F.D. properties file   788 does not exist.

 **********************************************************************

            Population analysis using the SCF Density.

 **********************************************************************

 Alpha  occ. eigenvalues --   -1.18012  -1.13966  -1.10669  -1.01585  -0.97338
 Alpha  occ. eigenvalues --   -0.89727  -0.86380  -0.79093  -0.76689  -0.69469
 Alpha  occ. eigenvalues --   -0.65506  -0.60901  -0.60471  -0.58670  -0.55912
 Alpha  occ. eigenvalues --   -0.55276  -0.54116  -0.53235  -0.49092  -0.47952
 Alpha  occ. eigenvalues --   -0.47915  -0.46114  -0.44068  -0.40727  -0.37581
 Alpha  occ. eigenvalues --   -0.36495  -0.35797  -0.31999
 Alpha virt. eigenvalues --   -0.04562  -0.00775  -0.00459   0.02096   0.02825
 Alpha virt. eigenvalues --    0.06708   0.08433   0.09886   0.13151   0.13820
 Alpha virt. eigenvalues --    0.15941   0.16399   0.16789   0.16976   0.17509
 Alpha virt. eigenvalues --    0.18222   0.18903   0.19993   0.20279   0.20329
 Alpha virt. eigenvalues --    0.21000   0.21409   0.21737   0.21858   0.22182
 Alpha virt. eigenvalues --    0.24604   0.26146
          Condensed to atoms (all electrons):
               1          2          3          4          5          6
     1  C    4.040056   0.000000   0.000000   0.000000   0.000000   0.000000
     2  C    0.000000   4.283409   0.000000   0.000000   0.000000   0.000000
     3  C    0.000000   0.000000   3.723323   0.000000   0.000000   0.000000
     4  C    0.000000   0.000000   0.000000   4.332891   0.000000   0.000000
     5  C    0.000000   0.000000   0.000000   0.000000   4.014492   0.000000
     6  C    0.000000   0.000000   0.000000   0.000000   0.000000   4.239782
     7  H    0.000000   0.000000   0.000000   0.000000   0.000000   0.000000
     8  H    0.000000   0.000000   0.000000   0.000000   0.000000   0.000000
     9  H    0.000000   0.000000   0.000000   0.000000   0.000000   0.000000
    10  C    0.000000   0.000000   0.000000   0.000000   0.000000   0.000000
    11  C    0.000000   0.000000   0.000000   0.000000   0.000000   0.000000
    12  H    0.000000   0.000000   0.000000   0.000000   0.000000   0.000000
    13  H    0.000000   0.000000   0.000000   0.000000   0.000000   0.000000
    14  H    0.000000   0.000000   0.000000   0.000000   0.000000   0.000000
    15  O    0.000000   0.000000   0.000000   0.000000   0.000000   0.000000
    16  O    0.000000   0.000000   0.000000   0.000000   0.000000   0.000000
    17  S    0.000000   0.000000   0.000000   0.000000   0.000000   0.000000
               7          8          9         10         11         12
     1  C    0.000000   0.000000   0.000000   0.000000   0.000000   0.000000
     2  C    0.000000   0.000000   0.000000   0.000000   0.000000   0.000000
     3  C    0.000000   0.000000   0.000000   0.000000   0.000000   0.000000
     4  C    0.000000   0.000000   0.000000   0.000000   0.000000   0.000000
     5  C    0.000000   0.000000   0.000000   0.000000   0.000000   0.000000
     6  C    0.000000   0.000000   0.000000   0.000000   0.000000   0.000000
     7  H    0.773594   0.000000   0.000000   0.000000   0.000000   0.000000
     8  H    0.000000   0.859281   0.000000   0.000000   0.000000   0.000000
     9  H    0.000000   0.000000   0.830081   0.000000   0.000000   0.000000
    10  C    0.000000   0.000000   0.000000   4.975577   0.000000   0.000000
    11  C    0.000000   0.000000   0.000000   0.000000   3.456483   0.000000
    12  H    0.000000   0.000000   0.000000   0.000000   0.000000   0.856074
    13  H    0.000000   0.000000   0.000000   0.000000   0.000000   0.000000
    14  H    0.000000   0.000000   0.000000   0.000000   0.000000   0.000000
    15  O    0.000000   0.000000   0.000000   0.000000   0.000000   0.000000
    16  O    0.000000   0.000000   0.000000   0.000000   0.000000   0.000000
    17  S    0.000000   0.000000   0.000000   0.000000   0.000000   0.000000
              13         14         15         16         17
     1  C    0.000000   0.000000   0.000000   0.000000   0.000000
     2  C    0.000000   0.000000   0.000000   0.000000   0.000000
     3  C    0.000000   0.000000   0.000000   0.000000   0.000000
     4  C    0.000000   0.000000   0.000000   0.000000   0.000000
     5  C    0.000000   0.000000   0.000000   0.000000   0.000000
     6  C    0.000000   0.000000   0.000000   0.000000   0.000000
     7  H    0.000000   0.000000   0.000000   0.000000   0.000000
     8  H    0.000000   0.000000   0.000000   0.000000   0.000000
     9  H    0.000000   0.000000   0.000000   0.000000   0.000000
    10  C    0.000000   0.000000   0.000000   0.000000   0.000000
    11  C    0.000000   0.000000   0.000000   0.000000   0.000000
    12  H    0.000000   0.000000   0.000000   0.000000   0.000000
    13  H    0.843097   0.000000   0.000000   0.000000   0.000000
    14  H    0.000000   0.876684   0.000000   0.000000   0.000000
    15  O    0.000000   0.000000   6.617876   0.000000   0.000000
    16  O    0.000000   0.000000   0.000000   6.596876   0.000000
    17  S    0.000000   0.000000   0.000000   0.000000   4.680424
 Mulliken charges:
               1
     1  C   -0.040056
     2  C   -0.283409
     3  C    0.276677
     4  C   -0.332891
     5  C   -0.014492
     6  C   -0.239782
     7  H    0.226406
     8  H    0.140719
     9  H    0.169919
    10  C   -0.975577
    11  C    0.543517
    12  H    0.143926
    13  H    0.156903
    14  H    0.123316
    15  O   -0.617876
    16  O   -0.596876
    17  S    1.319576
 Sum of Mulliken charges =   0.00000
 Mulliken charges with hydrogens summed into heavy atoms:
               1
     1  C    0.100663
     2  C   -0.113489
     3  C    0.276677
     4  C   -0.332891
     5  C    0.129434
     6  C   -0.082879
    10  C   -0.749171
    11  C    0.666833
    15  O   -0.617876
    16  O   -0.596876
    17  S    1.319576
 APT charges:
               1
     1  C   -0.040056
     2  C   -0.283409
     3  C    0.276677
     4  C   -0.332891
     5  C   -0.014492
     6  C   -0.239782
     7  H    0.226406
     8  H    0.140719
     9  H    0.169919
    10  C   -0.975577
    11  C    0.543517
    12  H    0.143926
    13  H    0.156903
    14  H    0.123316
    15  O   -0.617876
    16  O   -0.596876
    17  S    1.319576
 Sum of APT charges =   0.00000
 APT charges with hydrogens summed into heavy atoms:
               1
     1  C    0.100663
     2  C   -0.113489
     3  C    0.276677
     4  C   -0.332891
     5  C    0.129434
     6  C   -0.082879
    10  C   -0.749171
    11  C    0.666833
    15  O   -0.617876
    16  O   -0.596876
    17  S    1.319576
 Charge=              0.0000 electrons
 Dipole moment (field-independent basis, Debye):
    X=             -3.4431    Y=             -1.5666    Z=              0.0707  Tot=              3.7834
 N-N= 3.228174092638D+02 E-N=-5.009417258203D+02  KE=-1.081143174260D+02
  Exact polarizability:       0.000       0.000       0.000       0.000       0.000       0.000
 Approx polarizability:     110.388       1.080      96.865      -7.117      -3.251      31.859
 Calling FoFJK, ICntrl=    100127 FMM=F ISym2X=0 I1Cent= 0 IOpClX= 0 NMat=1 NMatS=1 NMatT=0.
 -------------------------------------------------------------------
 Center     Atomic                   Forces (Hartrees/Bohr)
 Number     Number              X              Y              Z
 -------------------------------------------------------------------
      1        6           0.000001519   -0.000001944    0.000000921
      2        6           0.000001929    0.000005288   -0.000000089
      3        6          -0.000002413   -0.000003363    0.000000288
      4        6          -0.000002126   -0.000001969   -0.000002081
      5        6          -0.000000177   -0.000000677   -0.000000086
      6        6          -0.000000206    0.000001964   -0.000000185
      7        1          -0.000000500   -0.000000416    0.000000949
      8        1           0.000000177    0.000000125   -0.000000413
      9        1          -0.000000205    0.000000122    0.000000035
     10        6          -0.000001716   -0.000000383    0.000003080
     11        6           0.000005710    0.000002344   -0.000001748
     12        1          -0.000000055   -0.000000187    0.000000414
     13        1          -0.000000055    0.000000055    0.000000169
     14        1          -0.000000149   -0.000001093   -0.000000239
     15        8          -0.000001614   -0.000002326    0.000001881
     16        8          -0.000002771    0.000000166   -0.000000029
     17       16           0.000002651    0.000002295   -0.000002867
 -------------------------------------------------------------------
 Cartesian Forces:  Max     0.000005710 RMS     0.000001824
 FormGI is forming the generalized inverse of G from B-inverse, IUseBI=4.

 GradGradGradGradGradGradGradGradGradGradGradGradGradGradGradGradGradGrad
 Berny optimization.
 Internal  Forces:  Max     0.000005370 RMS     0.000001050
 Search for a local minimum.
 Step number   1 out of a maximum of   96
 All quantities printed in internal units (Hartrees-Bohrs-Radians)
 Mixed Optimization -- En-DIIS/RFO-DIIS
 Second derivative matrix not updated -- analytic derivatives used.
 ITU=  0
     Eigenvalues ---   -0.31165   0.00741   0.00847   0.01044   0.01233
     Eigenvalues ---    0.01241   0.01717   0.01939   0.02244   0.02715
     Eigenvalues ---    0.02867   0.03148   0.03300   0.03809   0.04800
     Eigenvalues ---    0.08281   0.08902   0.10119   0.10236   0.10459
     Eigenvalues ---    0.10783   0.11002   0.12219   0.13014   0.14219
     Eigenvalues ---    0.15380   0.15540   0.18861   0.22844   0.24715
     Eigenvalues ---    0.26038   0.26295   0.26427   0.27669   0.28105
     Eigenvalues ---    0.29403   0.34140   0.37928   0.43963   0.50090
     Eigenvalues ---    0.51252   0.53033   0.55448   0.56417   0.69291
 RFO step:  Lambda=-3.11654576D-01 EMin=-3.11654571D-01
 I=     1 Eig=   -3.12D-01 Dot1=  3.79D-07
 I=     1 Stepn=  1.25D-01 RXN=   1.25D-01 EDone=F
 Mixed    1 eigenvectors in step.  Raw Step.Grad=  3.79D-07.
 RFO eigenvector is Hessian eigenvector with negative curvature.
 Taking step of  1.25D-01 in eigenvector direction(s).  Step.Grad=  1.92D-07.
 Linear search not attempted -- first point.
 Maximum step size (   0.050) exceeded in Quadratic search.
    -- Step size not scaled.
 Iteration  1 RMS(Cart)=  0.02009463 RMS(Int)=  0.00017840
 Iteration  2 RMS(Cart)=  0.00024060 RMS(Int)=  0.00005244
 Iteration  3 RMS(Cart)=  0.00000006 RMS(Int)=  0.00005244
 Variable       Old X    -DE/DX   Delta X   Delta X   Delta X     New X
                                 (Linear)    (Quad)   (Total)
    R1        2.66106   0.00000   0.00000   0.00196   0.00196   2.66302
    R2        2.63992   0.00000   0.00000   0.00063   0.00063   2.64055
    R3        2.06170   0.00000   0.00000  -0.00025  -0.00025   2.06145
    R4        2.61908  -0.00001   0.00000  -0.00166  -0.00166   2.61742
    R5        2.05130   0.00000   0.00000  -0.00014  -0.00014   2.05115
    R6        2.69066   0.00000   0.00000  -0.01775  -0.01780   2.67287
    R7        2.74187   0.00000   0.00000   0.00877   0.00879   2.75067
    R8        2.60505   0.00000   0.00000  -0.00084  -0.00085   2.60420
    R9        2.82237   0.00000   0.00000   0.00479   0.00475   2.82712
   R10        2.66426   0.00000   0.00000   0.00195   0.00195   2.66621
   R11        2.05484   0.00000   0.00000  -0.00023  -0.00023   2.05461
   R12        2.05635   0.00000   0.00000   0.00015   0.00015   2.05650
   R13        2.03007   0.00000   0.00000   0.00109   0.00109   2.03116
   R14        3.20530   0.00000   0.00000   0.03701   0.03697   3.24227
   R15        2.07117   0.00000   0.00000  -0.00227  -0.00227   2.06890
   R16        2.45611   0.00000   0.00000   0.03521   0.03524   2.49135
   R17        3.70154   0.00000   0.00000  -0.06370  -0.06363   3.63791
   R18        2.73407   0.00000   0.00000  -0.00061  -0.00061   2.73346
    A1        2.12543   0.00000   0.00000  -0.00044  -0.00045   2.12499
    A2        2.07453   0.00000   0.00000   0.00017   0.00017   2.07469
    A3        2.08322   0.00000   0.00000   0.00028   0.00028   2.08350
    A4        2.04635   0.00000   0.00000  -0.00479  -0.00480   2.04156
    A5        2.11424   0.00000   0.00000   0.00166   0.00166   2.11590
    A6        2.12259   0.00000   0.00000   0.00313   0.00313   2.12572
    A7        2.10535   0.00000   0.00000   0.00557   0.00557   2.11092
    A8        2.38481   0.00000   0.00000   0.01599   0.01600   2.40080
    A9        1.79303   0.00000   0.00000  -0.02156  -0.02158   1.77145
   A10        2.13370   0.00000   0.00000   0.00397   0.00399   2.13770
   A11        1.77720   0.00000   0.00000  -0.02483  -0.02489   1.75231
   A12        2.36990   0.00000   0.00000   0.02053   0.02056   2.39046
   A13        2.04182   0.00000   0.00000  -0.00448  -0.00449   2.03733
   A14        2.13195   0.00000   0.00000   0.00226   0.00226   2.13421
   A15        2.10941   0.00000   0.00000   0.00222   0.00223   2.11164
   A16        2.11292   0.00000   0.00000   0.00022   0.00021   2.11313
   A17        2.08968   0.00000   0.00000  -0.00014  -0.00014   2.08954
   A18        2.08054   0.00000   0.00000  -0.00009  -0.00008   2.08045
   A19        2.10299   0.00000   0.00000  -0.00409  -0.00421   2.09878
   A20        1.98653   0.00000   0.00000   0.00286   0.00278   1.98931
   A21        2.15385   0.00000   0.00000  -0.00553  -0.00560   2.14825
   A22        2.05862   0.00000   0.00000  -0.00255  -0.00269   2.05594
   A23        2.15946   0.00000   0.00000   0.00246   0.00227   2.16173
   A24        2.03097   0.00000   0.00000  -0.00772  -0.00784   2.02313
   A25        1.72892   0.00000   0.00000  -0.00801  -0.00792   1.72100
   A26        1.46591   0.00000   0.00000  -0.01986  -0.01993   1.44598
   A27        1.99105   0.00000   0.00000  -0.00108  -0.00114   1.98991
   A28        1.77800   0.00000   0.00000  -0.00721  -0.00729   1.77071
    D1        0.00114   0.00000   0.00000  -0.00184  -0.00184  -0.00070
    D2        3.13947   0.00000   0.00000  -0.00276  -0.00277   3.13671
    D3        3.13937   0.00000   0.00000  -0.00010  -0.00009   3.13928
    D4       -0.00548   0.00000   0.00000  -0.00101  -0.00102  -0.00650
    D5       -0.02299   0.00000   0.00000   0.00069   0.00069  -0.02230
    D6        3.12978   0.00000   0.00000   0.00168   0.00168   3.13146
    D7        3.12198   0.00000   0.00000  -0.00106  -0.00106   3.12091
    D8       -0.00843   0.00000   0.00000  -0.00008  -0.00008  -0.00851
    D9        0.03089   0.00000   0.00000   0.00064   0.00064   0.03153
   D10       -3.11010   0.00000   0.00000  -0.00643  -0.00646  -3.11656
   D11       -3.10743   0.00000   0.00000   0.00157   0.00157  -3.10586
   D12        0.03477   0.00000   0.00000  -0.00551  -0.00553   0.02924
   D13       -0.04355   0.00000   0.00000   0.00185   0.00187  -0.04167
   D14        3.03464   0.00000   0.00000  -0.00171  -0.00156   3.03308
   D15        3.09762   0.00000   0.00000   0.00684   0.00678   3.10439
   D16       -0.10738   0.00000   0.00000   0.00328   0.00334  -0.10404
   D17       -0.98720   0.00000   0.00000   0.00612   0.00617  -0.98102
   D18        1.86496   0.00000   0.00000  -0.01867  -0.01860   1.84636
   D19        2.15493   0.00000   0.00000  -0.00013  -0.00005   2.15489
   D20       -1.27610   0.00000   0.00000  -0.02492  -0.02482  -1.30091
   D21        0.02110   0.00000   0.00000  -0.00319  -0.00321   0.01789
   D22       -3.12556   0.00000   0.00000  -0.00275  -0.00276  -3.12832
   D23       -3.03144   0.00000   0.00000   0.00417   0.00415  -3.02729
   D24        0.10508   0.00000   0.00000   0.00461   0.00460   0.10968
   D25       -1.91820   0.00000   0.00000  -0.00043  -0.00046  -1.91867
   D26        1.51169   0.00000   0.00000   0.03311   0.03308   1.54477
   D27        1.14647   0.00000   0.00000  -0.00619  -0.00620   1.14027
   D28       -1.70682   0.00000   0.00000   0.02735   0.02735  -1.67948
   D29        0.01144   0.00000   0.00000   0.00191   0.00191   0.01335
   D30       -3.14128   0.00000   0.00000   0.00093   0.00093  -3.14035
   D31       -3.12516   0.00000   0.00000   0.00148   0.00147  -3.12369
   D32        0.00531   0.00000   0.00000   0.00050   0.00049   0.00580
   D33        1.44416   0.00000   0.00000   0.03627   0.03634   1.48050
   D34       -3.08772   0.00000   0.00000   0.01976   0.01977  -3.06795
   D35       -1.99648   0.00000   0.00000   0.01099   0.01109  -1.98538
   D36       -0.24517   0.00000   0.00000  -0.00553  -0.00547  -0.25065
   D37       -1.10937   0.00000   0.00000  -0.03142  -0.03141  -1.14078
   D38        2.31635   0.00000   0.00000   0.00089   0.00082   2.31717
   D39       -0.23703   0.00000   0.00000   0.00268   0.00281  -0.23422
   D40       -2.21616   0.00000   0.00000   0.00726   0.00720  -2.20896
         Item               Value     Threshold  Converged?
 Maximum Force            0.000005     0.000015     YES
 RMS     Force            0.000001     0.000010     YES
 Maximum Displacement     0.078983     0.000060     NO 
 RMS     Displacement     0.020137     0.000040     NO 
 Predicted change in Energy=-2.435033D-03
 GradGradGradGradGradGradGradGradGradGradGradGradGradGradGradGradGradGrad

                          Input orientation:                          
 ---------------------------------------------------------------------
 Center     Atomic      Atomic             Coordinates (Angstroms)
 Number     Number       Type             X           Y           Z
 ---------------------------------------------------------------------
      1          6           0       -5.574482   -1.622453   -0.025894
      2          6           0       -4.174701   -1.709193    0.111787
      3          6           0       -3.474604   -0.515794    0.175902
      4          6           0       -4.150148    0.726445    0.143273
      5          6           0       -5.517354    0.821790   -0.000863
      6          6           0       -6.231764   -0.391273   -0.094271
      7          1           0       -1.478710   -0.430522    1.103030
      8          1           0       -6.156337   -2.543506   -0.081675
      9          1           0       -3.673245   -2.670162    0.168577
     10          6           0       -2.087376   -0.088838    0.285674
     11          6           0       -3.009347    1.660936    0.395187
     12          1           0       -6.032032    1.778804   -0.037654
     13          1           0       -7.313452   -0.362831   -0.210167
     14          1           0       -2.976794    2.178637    1.359314
     15          8           0       -2.250840    2.167482   -0.556742
     16          8           0       -0.028129    0.871616   -1.090198
     17         16           0       -1.432983    0.536866   -1.171727
 ---------------------------------------------------------------------
                    Distance matrix (angstroms):
                    1          2          3          4          5
     1  C    0.000000
     2  C    1.409208   0.000000
     3  C    2.382206   1.385081   0.000000
     4  C    2.752212   2.435966   1.414419   0.000000
     5  C    2.445039   2.867278   2.448102   1.378085   0.000000
     6  C    1.397318   2.451709   2.773162   2.374626   1.410897
     7  H    4.412541   3.144190   2.202369   3.065336   4.370069
     8  H    1.090873   2.158792   3.371892   3.842912   3.426375
     9  H    2.179499   1.085423   2.163518   3.430017   3.952616
    10  C    3.822167   2.648153   1.455590   2.222609   3.560350
    11  C    4.187824   3.577169   2.236673   1.496048   2.674157
    12  H    3.431915   3.954508   3.442561   2.163720   1.087255
    13  H    2.155138   3.430467   3.861244   3.364214   2.161737
    14  H    4.807813   4.255177   2.984667   2.228088   3.185209
    15  O    5.068728   4.379130   3.038805   2.484749   3.576311
    16  O    6.173748   5.029852   3.925061   4.305063   5.596492
    17  S    4.809117   3.769510   2.663158   3.024590   4.258425
                    6          7          8          9         10
     6  C    0.000000
     7  H    4.901692   0.000000
     8  H    2.153590   5.267676   0.000000
     9  H    3.436341   3.271875   2.498883   0.000000
    10  C    4.172742   1.074846   4.766212   3.031818   0.000000
    11  C    3.851636   2.686651   5.273355   4.387542   1.980842
    12  H    2.179985   5.187969   4.324321   5.039812   4.376408
    13  H    1.088251   5.981077   2.471997   4.326468   5.256691
    14  H    4.394562   3.019545   5.872357   5.041205   2.661806
    15  O    4.754878   3.178153   6.137752   5.094322   2.413994
    16  O    6.408732   2.934281   7.087673   5.235988   2.656312
    17  S    5.005062   2.472338   5.743428   4.135240   1.715737
                   11         12         13         14         15
    11  C    0.000000
    12  H    3.055793   0.000000
    13  H    4.794519   2.501679   0.000000
    14  H    1.094812   3.383174   5.265827   0.000000
    15  O    1.318367   3.836397   5.670330   2.049001   0.000000
    16  O    3.423019   6.162605   7.441388   4.050067   2.627601
    17  S    2.490719   4.896916   6.026107   3.388943   1.925098
                   16         17
    16  O    0.000000
    17  S    1.446486   0.000000
 Symmetry turned off by external request.
 Stoichiometry    C8H6O2S
 Framework group  C1[X(C8H6O2S)]
 Deg. of freedom    45
 Full point group                 C1      NOp   1
 Rotational constants (GHZ):           2.5634735           0.7090218           0.6014920
 Standard basis: VSTO-6G (5D, 7F)
    55 basis functions,   336 primitive gaussians,    56 cartesian basis functions
    28 alpha electrons       28 beta electrons
       nuclear repulsion energy       323.0321650325 Hartrees.
 Integral buffers will be    131072 words long.
 Regular integral format.
 Two-electron integral symmetry is turned off.
 Do NDO integrals.
 One-electron integrals computed using PRISM.
 NBasis=    55 RedAO= F EigKep=  0.00D+00  NBF=    55
 NBsUse=    55 1.00D-04 EigRej=  0.00D+00 NBFU=    55
 Initial guess from the checkpoint file:  "C:\Users\al6323\OneDrive - Imperial College London\Desktop\TSR20251114\product_exo_opt+freq.chk"
 B after Tr=     0.002670    0.007011   -0.013256
         Rot=    1.000000   -0.000606   -0.000566   -0.000302 Ang=  -0.10 deg.
 Keep J ints in memory in canonical form, NReq=1858957.
 Overlap will be assumed to be unity.
 Requested convergence on RMS density matrix=1.00D-08 within  32 cycles.
 Requested convergence on MAX density matrix=1.00D-06.
 Requested convergence on             energy=1.00D-06.
 No special actions if energy rises.
 SCF Done:  E(RPM6) =  0.396069205496E-01 A.U. after   19 cycles
            NFock= 18  Conv=0.33D-08     -V/T= 1.0004
 QCSCF skips out because SCF is already converged.
 Calling FoFJK, ICntrl=      2127 FMM=F ISym2X=0 I1Cent= 0 IOpClX= 0 NMat=1 NMatS=1 NMatT=0.
 -------------------------------------------------------------------
 Center     Atomic                   Forces (Hartrees/Bohr)
 Number     Number              X              Y              Z
 -------------------------------------------------------------------
      1        6          -0.000378274    0.000235266   -0.000012424
      2        6           0.000490795   -0.000137900   -0.000430703
      3        6          -0.001061916   -0.009957817   -0.002165663
      4        6          -0.006955476    0.006869987   -0.001706597
      5        6          -0.000474757   -0.000145164   -0.000463431
      6        6           0.000482815   -0.000370853    0.000214258
      7        1           0.000820785   -0.000192423    0.000116258
      8        1           0.000056947    0.000055307    0.000000640
      9        1          -0.000192634   -0.000071074   -0.000086021
     10        6          -0.009277119    0.014646968    0.013723606
     11        6           0.011699526   -0.022487914    0.010597428
     12        1           0.000046101   -0.000061608   -0.000000384
     13        1          -0.000059470   -0.000004933    0.000000791
     14        1          -0.000305272    0.001153951   -0.001301792
     15        8           0.005665816   -0.001152270   -0.013057768
     16        8           0.000989096   -0.001402194    0.000365408
     17       16          -0.001546962    0.013022672   -0.005793606
 -------------------------------------------------------------------
 Cartesian Forces:  Max     0.022487914 RMS     0.006047658

 GradGradGradGradGradGradGradGradGradGradGradGradGradGradGradGradGradGrad
 Berny optimization.
 Using GEDIIS/GDIIS optimizer.
 FormGI is forming the generalized inverse of G from B-inverse, IUseBI=4.
 Internal  Forces:  Max     0.016509712 RMS     0.003617392
 Search for a local minimum.
 Step number   2 out of a maximum of   96
 All quantities printed in internal units (Hartrees-Bohrs-Radians)
 Mixed Optimization -- RFO/linear search
 Update second derivatives using D2CorX and points    1    2
 ITU=  0  0
 Use linear search instead of GDIIS.
     Eigenvalues ---   -0.26845   0.00741   0.00847   0.01043   0.01233
     Eigenvalues ---    0.01241   0.01717   0.01938   0.02244   0.02715
     Eigenvalues ---    0.02867   0.03148   0.03297   0.03808   0.04798
     Eigenvalues ---    0.08278   0.08902   0.10114   0.10235   0.10457
     Eigenvalues ---    0.10783   0.11002   0.12210   0.13008   0.14213
     Eigenvalues ---    0.15379   0.15540   0.18859   0.22842   0.24714
     Eigenvalues ---    0.26037   0.26294   0.26427   0.27669   0.28105
     Eigenvalues ---    0.29399   0.34138   0.37925   0.43950   0.50090
     Eigenvalues ---    0.51236   0.53033   0.55434   0.56407   0.69283
 RFO step:  Lambda=-2.72571213D-01 EMin=-2.68449734D-01
 I=     1 Eig=   -2.68D-01 Dot1=  4.19D-03
 I=     1 Stepn=  1.25D-01 RXN=   1.25D-01 EDone=F
 Mixed    1 eigenvectors in step.  Raw Step.Grad=  4.19D-03.
 RFO eigenvector is Hessian eigenvector with negative curvature.
 Taking step of  1.25D-01 in eigenvector direction(s).  Step.Grad= -7.66D-05.
 Skip linear search -- no minimum in search direction.
 Maximum step size (   0.050) exceeded in Quadratic search.
    -- Step size not scaled.
 Iteration  1 RMS(Cart)=  0.01989280 RMS(Int)=  0.00018516
 Iteration  2 RMS(Cart)=  0.00024404 RMS(Int)=  0.00005308
 Iteration  3 RMS(Cart)=  0.00000007 RMS(Int)=  0.00005308
 Variable       Old X    -DE/DX   Delta X   Delta X   Delta X     New X
                                 (Linear)    (Quad)   (Total)
    R1        2.66302   0.00039   0.00000   0.00182   0.00182   2.66484
    R2        2.64055   0.00036   0.00000   0.00070   0.00070   2.64125
    R3        2.06145  -0.00008   0.00000  -0.00026  -0.00026   2.06119
    R4        2.61742  -0.00036   0.00000  -0.00173  -0.00173   2.61570
    R5        2.05115  -0.00003   0.00000  -0.00012  -0.00012   2.05103
    R6        2.67287  -0.00343   0.00000  -0.01586  -0.01591   2.65695
    R7        2.75067   0.00297   0.00000   0.00956   0.00957   2.76024
    R8        2.60420  -0.00007   0.00000  -0.00078  -0.00079   2.60341
    R9        2.82712   0.00156   0.00000   0.00499   0.00495   2.83207
   R10        2.66621   0.00042   0.00000   0.00181   0.00181   2.66802
   R11        2.05461  -0.00008   0.00000  -0.00024  -0.00024   2.05437
   R12        2.05650   0.00006   0.00000   0.00020   0.00020   2.05670
   R13        2.03116   0.00061   0.00000   0.00155   0.00155   2.03272
   R14        3.24227   0.01040   0.00000   0.03747   0.03744   3.27971
   R15        2.06890  -0.00061   0.00000  -0.00244  -0.00244   2.06646
   R16        2.49135   0.00975   0.00000   0.03541   0.03543   2.52678
   R17        3.63791  -0.01651   0.00000  -0.06225  -0.06218   3.57572
   R18        2.73346   0.00066   0.00000   0.00032   0.00032   2.73378
    A1        2.12499   0.00000   0.00000  -0.00035  -0.00035   2.12463
    A2        2.07469  -0.00002   0.00000   0.00012   0.00012   2.07482
    A3        2.08350   0.00002   0.00000   0.00023   0.00023   2.08373
    A4        2.04156  -0.00131   0.00000  -0.00476  -0.00477   2.03679
    A5        2.11590   0.00043   0.00000   0.00160   0.00160   2.11750
    A6        2.12572   0.00087   0.00000   0.00316   0.00316   2.12888
    A7        2.11092   0.00146   0.00000   0.00556   0.00557   2.11649
    A8        2.40080   0.00448   0.00000   0.01625   0.01627   2.41708
    A9        1.77145  -0.00595   0.00000  -0.02183  -0.02188   1.74956
   A10        2.13770   0.00079   0.00000   0.00347   0.00349   2.14119
   A11        1.75231  -0.00659   0.00000  -0.02475  -0.02483   1.72748
   A12        2.39046   0.00571   0.00000   0.02095   0.02100   2.41146
   A13        2.03733  -0.00118   0.00000  -0.00433  -0.00435   2.03298
   A14        2.13421   0.00058   0.00000   0.00214   0.00214   2.13636
   A15        2.11164   0.00060   0.00000   0.00220   0.00221   2.11384
   A16        2.11313   0.00024   0.00000   0.00045   0.00045   2.11357
   A17        2.08954  -0.00013   0.00000  -0.00027  -0.00027   2.08927
   A18        2.08045  -0.00011   0.00000  -0.00019  -0.00019   2.08027
   A19        2.09878  -0.00091   0.00000  -0.00376  -0.00389   2.09489
   A20        1.98931   0.00028   0.00000   0.00161   0.00151   1.99082
   A21        2.14825  -0.00137   0.00000  -0.00532  -0.00539   2.14286
   A22        2.05594  -0.00033   0.00000  -0.00170  -0.00185   2.05408
   A23        2.16173  -0.00043   0.00000  -0.00041  -0.00060   2.16113
   A24        2.02313  -0.00170   0.00000  -0.00696  -0.00709   2.01604
   A25        1.72100  -0.00184   0.00000  -0.00743  -0.00738   1.71362
   A26        1.44598  -0.00522   0.00000  -0.01981  -0.01988   1.42610
   A27        1.98991   0.00005   0.00000  -0.00042  -0.00046   1.98944
   A28        1.77071  -0.00133   0.00000  -0.00526  -0.00532   1.76539
    D1       -0.00070  -0.00051   0.00000  -0.00191  -0.00191  -0.00261
    D2        3.13671  -0.00074   0.00000  -0.00280  -0.00281   3.13390
    D3        3.13928  -0.00004   0.00000  -0.00015  -0.00015   3.13913
    D4       -0.00650  -0.00027   0.00000  -0.00104  -0.00104  -0.00754
    D5       -0.02230   0.00019   0.00000   0.00073   0.00073  -0.02157
    D6        3.13146   0.00043   0.00000   0.00165   0.00165   3.13311
    D7        3.12091  -0.00028   0.00000  -0.00104  -0.00104   3.11987
    D8       -0.00851  -0.00003   0.00000  -0.00012  -0.00012  -0.00863
    D9        0.03153   0.00018   0.00000   0.00066   0.00065   0.03218
   D10       -3.11656  -0.00177   0.00000  -0.00669  -0.00671  -3.12327
   D11       -3.10586   0.00041   0.00000   0.00156   0.00156  -3.10430
   D12        0.02924  -0.00153   0.00000  -0.00579  -0.00581   0.02343
   D13       -0.04167   0.00051   0.00000   0.00194   0.00196  -0.03971
   D14        3.03308  -0.00035   0.00000  -0.00132  -0.00118   3.03190
   D15        3.10439   0.00182   0.00000   0.00691   0.00682   3.11122
   D16       -0.10404   0.00096   0.00000   0.00364   0.00369  -0.10036
   D17       -0.98102   0.00168   0.00000   0.00626   0.00630  -0.97472
   D18        1.84636  -0.00506   0.00000  -0.01893  -0.01885   1.82751
   D19        2.15489  -0.00001   0.00000  -0.00013  -0.00005   2.15483
   D20       -1.30091  -0.00675   0.00000  -0.02532  -0.02521  -1.32612
   D21        0.01789  -0.00087   0.00000  -0.00329  -0.00330   0.01459
   D22       -3.12832  -0.00073   0.00000  -0.00275  -0.00275  -3.13108
   D23       -3.02729   0.00109   0.00000   0.00404   0.00403  -3.02326
   D24        0.10968   0.00122   0.00000   0.00458   0.00458   0.11426
   D25       -1.91867  -0.00042   0.00000  -0.00122  -0.00125  -1.91992
   D26        1.54477   0.00896   0.00000   0.03352   0.03347   1.57824
   D27        1.14027  -0.00195   0.00000  -0.00694  -0.00695   1.13332
   D28       -1.67948   0.00743   0.00000   0.02779   0.02776  -1.65172
   D29        0.01335   0.00051   0.00000   0.00193   0.00193   0.01527
   D30       -3.14035   0.00026   0.00000   0.00101   0.00101  -3.13934
   D31       -3.12369   0.00037   0.00000   0.00139   0.00138  -3.12231
   D32        0.00580   0.00013   0.00000   0.00047   0.00047   0.00627
   D33        1.48050   0.00948   0.00000   0.03561   0.03565   1.51616
   D34       -3.06795   0.00577   0.00000   0.02132   0.02132  -3.04663
   D35       -1.98538   0.00263   0.00000   0.00998   0.01007  -1.97531
   D36       -0.25065  -0.00108   0.00000  -0.00431  -0.00426  -0.25491
   D37       -1.14078  -0.00898   0.00000  -0.03312  -0.03311  -1.17389
   D38        2.31717   0.00001   0.00000   0.00016   0.00007   2.31724
   D39       -0.23422   0.00132   0.00000   0.00453   0.00464  -0.22958
   D40       -2.20896   0.00207   0.00000   0.00800   0.00795  -2.20101
         Item               Value     Threshold  Converged?
 Maximum Force            0.016510     0.000015     NO 
 RMS     Force            0.003617     0.000010     NO 
 Maximum Displacement     0.079366     0.000060     NO 
 RMS     Displacement     0.019947     0.000040     NO 
 Predicted change in Energy=-6.286621D-03
 GradGradGradGradGradGradGradGradGradGradGradGradGradGradGradGradGradGrad

                          Input orientation:                          
 ---------------------------------------------------------------------
 Center     Atomic      Atomic             Coordinates (Angstroms)
 Number     Number       Type             X           Y           Z
 ---------------------------------------------------------------------
      1          6           0       -5.579128   -1.624517   -0.027116
      2          6           0       -4.178683   -1.711291    0.113623
      3          6           0       -3.484685   -0.515340    0.176771
      4          6           0       -4.155038    0.720071    0.141908
      5          6           0       -5.521460    0.821180   -0.001736
      6          6           0       -6.236077   -0.392785   -0.096355
      7          1           0       -1.494558   -0.388524    1.118262
      8          1           0       -6.161015   -2.545388   -0.082862
      9          1           0       -3.676046   -2.671365    0.173815
     10          6           0       -2.102627   -0.057672    0.294947
     11          6           0       -2.989134    1.626093    0.398423
     12          1           0       -6.034166    1.779137   -0.037719
     13          1           0       -7.317787   -0.364266   -0.213017
     14          1           0       -2.946746    2.138904    1.363316
     15          8           0       -2.229129    2.152693   -0.567475
     16          8           0       -0.025898    0.888882   -1.097009
     17         16           0       -1.430123    0.552192   -1.184221
 ---------------------------------------------------------------------
                    Distance matrix (angstroms):
                    1          2          3          4          5
     1  C    0.000000
     2  C    1.410172   0.000000
     3  C    2.378768   1.384167   0.000000
     4  C    2.748399   2.431642   1.405998   0.000000
     5  C    2.446508   2.868757   2.442664   1.377667   0.000000
     6  C    1.397691   2.452636   2.767630   2.371907   1.411856
     7  H    4.418516   3.156507   2.205242   3.043092   4.351290
     8  H    1.090735   2.159622   3.369161   3.838970   3.427738
     9  H    2.181281   1.085361   2.164502   3.425243   3.954015
    10  C    3.826851   2.660327   1.460654   2.200158   3.542432
    11  C    4.177992   3.554471   2.209171   1.498668   2.687134
    12  H    3.433953   3.955858   3.436639   2.164488   1.087127
    13  H    2.155395   3.431494   3.855831   3.362252   2.162570
    14  H    4.798549   4.231241   2.956734   2.228204   3.198268
    15  O    5.077578   4.381213   3.041171   2.502949   3.596169
    16  O    6.188716   5.046994   3.944307   4.314303   5.604053
    17  S    4.826096   3.789767   2.685730   3.035122   4.267279
                    6          7          8          9         10
     6  C    0.000000
     7  H    4.894621   0.000000
     8  H    2.153954   5.279260   0.000000
     9  H    3.437830   3.295790   2.501365   0.000000
    10  C    4.165432   1.075667   4.775143   3.053147   0.000000
    11  C    3.855296   2.609714   5.262482   4.357802   1.905693
    12  H    2.182075   5.161695   4.326621   5.041075   4.352187
    13  H    1.088357   5.973516   2.472318   4.328351   5.248802
    14  H    4.399976   2.925200   5.862214   5.008540   2.584356
    15  O    4.770434   3.136732   6.145449   5.090640   2.376024
    16  O    6.419525   2.948924   7.103687   5.254895   2.673258
    17  S    5.017333   2.488077   5.761019   4.156892   1.735550
                   11         12         13         14         15
    11  C    0.000000
    12  H    3.079913   0.000000
    13  H    4.803397   2.504514   0.000000
    14  H    1.093522   3.409471   5.277943   0.000000
    15  O    1.337114   3.859856   5.688160   2.059882   0.000000
    16  O    3.400083   6.165544   7.451407   4.018346   2.594581
    17  S    2.467497   4.900722   6.037195   3.362699   1.892192
                   16         17
    16  O    0.000000
    17  S    1.446656   0.000000
 Symmetry turned off by external request.
 Stoichiometry    C8H6O2S
 Framework group  C1[X(C8H6O2S)]
 Deg. of freedom    45
 Full point group                 C1      NOp   1
 Rotational constants (GHZ):           2.6021293           0.7039451           0.6010203
 Standard basis: VSTO-6G (5D, 7F)
    55 basis functions,   336 primitive gaussians,    56 cartesian basis functions
    28 alpha electrons       28 beta electrons
       nuclear repulsion energy       323.2445238891 Hartrees.
 Integral buffers will be    131072 words long.
 Regular integral format.
 Two-electron integral symmetry is turned off.
 Do NDO integrals.
 One-electron integrals computed using PRISM.
 NBasis=    55 RedAO= F EigKep=  0.00D+00  NBF=    55
 NBsUse=    55 1.00D-04 EigRej=  0.00D+00 NBFU=    55
 Initial guess from the checkpoint file:  "C:\Users\al6323\OneDrive - Imperial College London\Desktop\TSR20251114\product_exo_opt+freq.chk"
 B after Tr=     0.002554    0.006551   -0.013332
         Rot=    1.000000   -0.000552   -0.000581   -0.000285 Ang=  -0.10 deg.
 Keep J ints in memory in canonical form, NReq=1858957.
 Overlap will be assumed to be unity.
 Requested convergence on RMS density matrix=1.00D-08 within  32 cycles.
 Requested convergence on MAX density matrix=1.00D-06.
 Requested convergence on             energy=1.00D-06.
 No special actions if energy rises.
 SCF Done:  E(RPM6) =  0.341078470321E-01 A.U. after   18 cycles
            NFock= 17  Conv=0.78D-08     -V/T= 1.0003
 QCSCF skips out because SCF is already converged.
 Calling FoFJK, ICntrl=      2127 FMM=F ISym2X=0 I1Cent= 0 IOpClX= 0 NMat=1 NMatS=1 NMatT=0.
 -------------------------------------------------------------------
 Center     Atomic                   Forces (Hartrees/Bohr)
 Number     Number              X              Y              Z
 -------------------------------------------------------------------
      1        6          -0.000254283    0.000221592    0.000029778
      2        6           0.000316087   -0.000449467   -0.000722316
      3        6          -0.000107661   -0.018911240   -0.003578178
      4        6          -0.012396161    0.014459862   -0.002896285
      5        6          -0.001273969   -0.000575202   -0.000738554
      6        6           0.000908210   -0.000193654    0.000422715
      7        1           0.001641746   -0.000484914    0.000263180
      8        1           0.000099027    0.000095171   -0.000019750
      9        1          -0.000329522   -0.000111815   -0.000196316
     10        6          -0.015235877    0.023601272    0.021208951
     11        6           0.020246552   -0.036336550    0.016949423
     12        1           0.000092947   -0.000119566   -0.000024740
     13        1          -0.000095415   -0.000008027   -0.000027838
     14        1          -0.000628468    0.002450064   -0.002232114
     15        8           0.006341265   -0.000843014   -0.020505626
     16        8           0.002445210   -0.002936695    0.000373685
     17       16          -0.001769689    0.020142182   -0.008306016
 -------------------------------------------------------------------
 Cartesian Forces:  Max     0.036336550 RMS     0.009872877

 GradGradGradGradGradGradGradGradGradGradGradGradGradGradGradGradGradGrad
 Berny optimization.
 Using GEDIIS/GDIIS optimizer.
 FormGI is forming the generalized inverse of G from B-inverse, IUseBI=4.
 Internal  Forces:  Max     0.024374974 RMS     0.005628083
 Search for a local minimum.
 Step number   3 out of a maximum of   96
 All quantities printed in internal units (Hartrees-Bohrs-Radians)
 Mixed Optimization -- RFO/linear search
 Update second derivatives using D2CorX and points    1    2    3
 ITU=  0  0  0
 Use linear search instead of GDIIS.
     Eigenvalues ---   -0.15212   0.00741   0.00847   0.01041   0.01233
     Eigenvalues ---    0.01241   0.01715   0.01937   0.02244   0.02715
     Eigenvalues ---    0.02867   0.03147   0.03269   0.03803   0.04762
     Eigenvalues ---    0.08271   0.08901   0.10076   0.10229   0.10450
     Eigenvalues ---    0.10782   0.11002   0.12150   0.12977   0.14184
     Eigenvalues ---    0.15373   0.15539   0.18839   0.22777   0.24705
     Eigenvalues ---    0.26033   0.26294   0.26427   0.27668   0.28105
     Eigenvalues ---    0.29386   0.34130   0.37826   0.43762   0.50090
     Eigenvalues ---    0.51165   0.53028   0.55353   0.56359   0.69200
 RFO step:  Lambda=-1.68205770D-01 EMin=-1.52119398D-01
 Skip linear search -- no minimum in search direction.
 Maximum step size (   0.050) exceeded in Quadratic search.
    -- Step size scaled by   0.194
 Iteration  1 RMS(Cart)=  0.01023684 RMS(Int)=  0.00006091
 Iteration  2 RMS(Cart)=  0.00007597 RMS(Int)=  0.00001907
 Iteration  3 RMS(Cart)=  0.00000001 RMS(Int)=  0.00001907
 Variable       Old X    -DE/DX   Delta X   Delta X   Delta X     New X
                                 (Linear)    (Quad)   (Total)
    R1        2.66484   0.00040   0.00000   0.00073   0.00073   2.66557
    R2        2.64125   0.00092   0.00000   0.00051   0.00052   2.64177
    R3        2.06119  -0.00013   0.00000  -0.00014  -0.00014   2.06105
    R4        2.61570  -0.00040   0.00000  -0.00100  -0.00100   2.61469
    R5        2.05103  -0.00006   0.00000  -0.00008  -0.00008   2.05095
    R6        2.65695  -0.00238   0.00000  -0.00447  -0.00450   2.65245
    R7        2.76024   0.00517   0.00000   0.00578   0.00578   2.76601
    R8        2.60341   0.00010   0.00000  -0.00040  -0.00040   2.60301
    R9        2.83207   0.00304   0.00000   0.00328   0.00328   2.83535
   R10        2.66802   0.00047   0.00000   0.00075   0.00075   2.66877
   R11        2.05437  -0.00015   0.00000  -0.00017  -0.00017   2.05420
   R12        2.05670   0.00010   0.00000   0.00015   0.00015   2.05684
   R13        2.03272   0.00128   0.00000   0.00133   0.00133   2.03405
   R14        3.27971   0.01616   0.00000   0.01990   0.01990   3.29962
   R15        2.06646  -0.00084   0.00000  -0.00125  -0.00125   2.06521
   R16        2.52678   0.01473   0.00000   0.01824   0.01824   2.54502
   R17        3.57572  -0.02437   0.00000  -0.03097  -0.03094   3.54478
   R18        2.73378   0.00171   0.00000   0.00118   0.00118   2.73496
    A1        2.12463   0.00031   0.00000   0.00015   0.00015   2.12478
    A2        2.07482  -0.00018   0.00000  -0.00008  -0.00008   2.07474
    A3        2.08373  -0.00012   0.00000  -0.00007  -0.00007   2.08367
    A4        2.03679  -0.00212   0.00000  -0.00256  -0.00256   2.03423
    A5        2.11750   0.00069   0.00000   0.00082   0.00082   2.11833
    A6        2.12888   0.00143   0.00000   0.00174   0.00174   2.13062
    A7        2.11649   0.00214   0.00000   0.00279   0.00280   2.11929
    A8        2.41708   0.00757   0.00000   0.00948   0.00951   2.42658
    A9        1.74956  -0.00973   0.00000  -0.01231  -0.01234   1.73722
   A10        2.14119   0.00074   0.00000   0.00106   0.00107   2.14226
   A11        1.72748  -0.01019   0.00000  -0.01299  -0.01302   1.71445
   A12        2.41146   0.00932   0.00000   0.01175   0.01178   2.42324
   A13        2.03298  -0.00182   0.00000  -0.00216  -0.00217   2.03081
   A14        2.13636   0.00089   0.00000   0.00104   0.00104   2.13740
   A15        2.11384   0.00093   0.00000   0.00113   0.00113   2.11497
   A16        2.11357   0.00077   0.00000   0.00074   0.00074   2.11431
   A17        2.08927  -0.00040   0.00000  -0.00042  -0.00042   2.08885
   A18        2.08027  -0.00037   0.00000  -0.00032  -0.00032   2.07995
   A19        2.09489  -0.00104   0.00000  -0.00121  -0.00124   2.09365
   A20        1.99082  -0.00050   0.00000  -0.00085  -0.00089   1.98993
   A21        2.14286  -0.00195   0.00000  -0.00248  -0.00250   2.14036
   A22        2.05408   0.00014   0.00000   0.00036   0.00030   2.05438
   A23        2.16113  -0.00247   0.00000  -0.00348  -0.00355   2.15758
   A24        2.01604  -0.00228   0.00000  -0.00292  -0.00297   2.01307
   A25        1.71362  -0.00279   0.00000  -0.00385  -0.00387   1.70976
   A26        1.42610  -0.00772   0.00000  -0.01004  -0.01007   1.41604
   A27        1.98944   0.00048   0.00000   0.00061   0.00060   1.99005
   A28        1.76539  -0.00113   0.00000  -0.00098  -0.00098   1.76441
    D1       -0.00261  -0.00079   0.00000  -0.00103  -0.00103  -0.00364
    D2        3.13390  -0.00115   0.00000  -0.00149  -0.00149   3.13241
    D3        3.13913  -0.00008   0.00000  -0.00011  -0.00011   3.13902
    D4       -0.00754  -0.00044   0.00000  -0.00057  -0.00057  -0.00811
    D5       -0.02157   0.00032   0.00000   0.00041   0.00041  -0.02115
    D6        3.13311   0.00064   0.00000   0.00083   0.00083   3.13394
    D7        3.11987  -0.00040   0.00000  -0.00051  -0.00051   3.11937
    D8       -0.00863  -0.00007   0.00000  -0.00009  -0.00009  -0.00873
    D9        0.03218   0.00023   0.00000   0.00032   0.00031   0.03249
   D10       -3.12327  -0.00283   0.00000  -0.00368  -0.00368  -3.12695
   D11       -3.10430   0.00060   0.00000   0.00078   0.00078  -3.10351
   D12        0.02343  -0.00246   0.00000  -0.00321  -0.00321   0.02023
   D13       -0.03971   0.00085   0.00000   0.00109   0.00109  -0.03862
   D14        3.03190  -0.00028   0.00000  -0.00040  -0.00036   3.03154
   D15        3.11122   0.00281   0.00000   0.00366   0.00363   3.11484
   D16       -0.10036   0.00168   0.00000   0.00217   0.00218  -0.09818
   D17       -0.97472   0.00284   0.00000   0.00369   0.00370  -0.97102
   D18        1.82751  -0.00797   0.00000  -0.01040  -0.01037   1.81714
   D19        2.15483   0.00022   0.00000   0.00027   0.00029   2.15512
   D20       -1.32612  -0.01059   0.00000  -0.01382  -0.01378  -1.33990
   D21        0.01459  -0.00136   0.00000  -0.00177  -0.00177   0.01282
   D22       -3.13108  -0.00111   0.00000  -0.00142  -0.00142  -3.13249
   D23       -3.02326   0.00157   0.00000   0.00203   0.00202  -3.02124
   D24        0.11426   0.00182   0.00000   0.00238   0.00237   0.11663
   D25       -1.91992  -0.00139   0.00000  -0.00194  -0.00195  -1.92187
   D26        1.57824   0.01431   0.00000   0.01863   0.01860   1.59684
   D27        1.13332  -0.00370   0.00000  -0.00493  -0.00493   1.12838
   D28       -1.65172   0.01200   0.00000   0.01564   0.01562  -1.63610
   D29        0.01527   0.00075   0.00000   0.00099   0.00099   0.01626
   D30       -3.13934   0.00043   0.00000   0.00057   0.00057  -3.13876
   D31       -3.12231   0.00050   0.00000   0.00064   0.00064  -3.12166
   D32        0.00627   0.00018   0.00000   0.00023   0.00023   0.00650
   D33        1.51616   0.01446   0.00000   0.01844   0.01844   1.53460
   D34       -3.04663   0.00988   0.00000   0.01302   0.01301  -3.03362
   D35       -1.97531   0.00353   0.00000   0.00421   0.00423  -1.97108
   D36       -0.25491  -0.00106   0.00000  -0.00121  -0.00120  -0.25611
   D37       -1.17389  -0.01508   0.00000  -0.01954  -0.01953  -1.19342
   D38        2.31724  -0.00014   0.00000   0.00001  -0.00003   2.31721
   D39       -0.22958   0.00303   0.00000   0.00411   0.00413  -0.22545
   D40       -2.20101   0.00363   0.00000   0.00494   0.00494  -2.19607
         Item               Value     Threshold  Converged?
 Maximum Force            0.024375     0.000015     NO 
 RMS     Force            0.005628     0.000010     NO 
 Maximum Displacement     0.042100     0.000060     NO 
 RMS     Displacement     0.010262     0.000040     NO 
 Predicted change in Energy=-3.806289D-03
 GradGradGradGradGradGradGradGradGradGradGradGradGradGradGradGradGradGrad

                          Input orientation:                          
 ---------------------------------------------------------------------
 Center     Atomic      Atomic             Coordinates (Angstroms)
 Number     Number       Type             X           Y           Z
 ---------------------------------------------------------------------
      1          6           0       -5.581175   -1.625563   -0.028357
      2          6           0       -4.180597   -1.713028    0.114505
      3          6           0       -3.489392   -0.516085    0.177852
      4          6           0       -4.157655    0.717721    0.141922
      5          6           0       -5.523656    0.821218   -0.001984
      6          6           0       -6.237821   -0.393374   -0.097862
      7          1           0       -1.501899   -0.366246    1.127539
      8          1           0       -6.163331   -2.546141   -0.084684
      9          1           0       -3.677821   -2.672878    0.176310
     10          6           0       -2.110297   -0.041387    0.301164
     11          6           0       -2.978393    1.608365    0.401348
     12          1           0       -6.035686    1.779451   -0.037534
     13          1           0       -7.319518   -0.364953   -0.215392
     14          1           0       -2.930388    2.119857    1.365931
     15          8           0       -2.220301    2.144891   -0.573959
     16          8           0       -0.024818    0.896688   -1.102981
     17         16           0       -1.429552    0.559466   -1.190265
 ---------------------------------------------------------------------
                    Distance matrix (angstroms):
                    1          2          3          4          5
     1  C    0.000000
     2  C    1.410560   0.000000
     3  C    2.376767   1.383636   0.000000
     4  C    2.747069   2.431012   1.403618   0.000000
     5  C    2.447600   2.870502   2.441096   1.377453   0.000000
     6  C    1.397964   2.453316   2.764948   2.370468   1.412253
     7  H    4.422949   3.164725   2.207824   3.033062   4.342859
     8  H    1.090661   2.159859   3.367492   3.837563   3.428576
     9  H    2.182090   1.085318   2.165009   3.424557   3.955706
    10  C    3.829517   2.667465   1.463710   2.189356   3.533696
    11  C    4.173418   3.543900   2.196442   1.500402   2.694557
    12  H    3.435227   3.957510   3.435039   2.164827   1.087037
    13  H    2.155448   3.432050   3.853225   3.361136   2.162791
    14  H    4.795715   4.221385   2.944861   2.229432   3.206663
    15  O    5.080303   4.381812   3.042467   2.510506   3.604361
    16  O    6.195941   5.056025   3.954710   4.319972   5.608485
    17  S    4.833256   3.799329   2.696572   3.040118   4.271091
                    6          7          8          9         10
     6  C    0.000000
     7  H    4.891963   0.000000
     8  H    2.154096   5.286812   0.000000
     9  H    3.438737   3.310593   2.502387   0.000000
    10  C    4.161679   1.076372   4.780142   3.065529   0.000000
    11  C    3.857466   2.570307   5.257374   4.343833   1.866898
    12  H    2.183041   5.149431   4.327732   5.042667   4.340374
    13  H    1.088434   5.970608   2.472132   4.329192   5.244760
    14  H    4.404331   2.877172   5.858988   4.994413   2.545045
    15  O    4.775974   3.117211   6.147573   5.089024   2.357488
    16  O    6.424635   2.958377   7.111353   5.265246   2.683436
    17  S    5.022022   2.496877   5.768516   4.167768   1.746081
                   11         12         13         14         15
    11  C    0.000000
    12  H    3.093368   0.000000
    13  H    4.808297   2.505659   0.000000
    14  H    1.092863   3.424685   5.285766   0.000000
    15  O    1.346769   3.870202   5.694726   2.065919   0.000000
    16  O    3.390147   6.168062   7.456018   4.004249   2.580314
    17  S    2.456080   4.902410   6.041244   3.349846   1.875817
                   16         17
    16  O    0.000000
    17  S    1.447278   0.000000
 Symmetry turned off by external request.
 Stoichiometry    C8H6O2S
 Framework group  C1[X(C8H6O2S)]
 Deg. of freedom    45
 Full point group                 C1      NOp   1
 Rotational constants (GHZ):           2.6189805           0.7015547           0.6008599
 Standard basis: VSTO-6G (5D, 7F)
    55 basis functions,   336 primitive gaussians,    56 cartesian basis functions
    28 alpha electrons       28 beta electrons
       nuclear repulsion energy       323.3318055278 Hartrees.
 Integral buffers will be    131072 words long.
 Regular integral format.
 Two-electron integral symmetry is turned off.
 Do NDO integrals.
 One-electron integrals computed using PRISM.
 NBasis=    55 RedAO= F EigKep=  0.00D+00  NBF=    55
 NBsUse=    55 1.00D-04 EigRej=  0.00D+00 NBFU=    55
 Initial guess from the checkpoint file:  "C:\Users\al6323\OneDrive - Imperial College London\Desktop\TSR20251114\product_exo_opt+freq.chk"
 B after Tr=     0.000915    0.002969   -0.007745
         Rot=    1.000000   -0.000253   -0.000370   -0.000141 Ang=  -0.05 deg.
 Keep J ints in memory in canonical form, NReq=1858957.
 Overlap will be assumed to be unity.
 Requested convergence on RMS density matrix=1.00D-08 within  32 cycles.
 Requested convergence on MAX density matrix=1.00D-06.
 Requested convergence on             energy=1.00D-06.
 No special actions if energy rises.
 SCF Done:  E(RPM6) =  0.304768443131E-01 A.U. after   16 cycles
            NFock= 15  Conv=0.81D-08     -V/T= 1.0003
 QCSCF skips out because SCF is already converged.
 Calling FoFJK, ICntrl=      2127 FMM=F ISym2X=0 I1Cent= 0 IOpClX= 0 NMat=1 NMatS=1 NMatT=0.
 -------------------------------------------------------------------
 Center     Atomic                   Forces (Hartrees/Bohr)
 Number     Number              X              Y              Z
 -------------------------------------------------------------------
      1        6          -0.000298217    0.000314193    0.000044419
      2        6           0.000298887   -0.000406844   -0.000812432
      3        6           0.000648326   -0.021768773   -0.003947863
      4        6          -0.014110287    0.017185517   -0.003114794
      5        6          -0.001360999   -0.000756004   -0.000806505
      6        6           0.001059538   -0.000239305    0.000502182
      7        1           0.001939964   -0.000707627    0.000170638
      8        1           0.000103627    0.000103808   -0.000035965
      9        1          -0.000371545   -0.000118760   -0.000250456
     10        6          -0.017004748    0.025952274    0.022875110
     11        6           0.023101709   -0.040349665    0.018389686
     12        1           0.000102664   -0.000138219   -0.000038910
     13        1          -0.000104775   -0.000011635   -0.000044909
     14        1          -0.000844324    0.003167907   -0.002595562
     15        8           0.005315563   -0.000139491   -0.022128750
     16        8           0.002685641   -0.003763793    0.000342608
     17       16          -0.001161025    0.021676415   -0.008548498
 -------------------------------------------------------------------
 Cartesian Forces:  Max     0.040349665 RMS     0.010928792

 GradGradGradGradGradGradGradGradGradGradGradGradGradGradGradGradGradGrad
 Berny optimization.
 Using GEDIIS/GDIIS optimizer.
 FormGI is forming the generalized inverse of G from B-inverse, IUseBI=4.
 Internal  Forces:  Max     0.025478605 RMS     0.006084272
 Search for a local minimum.
 Step number   4 out of a maximum of   96
 All quantities printed in internal units (Hartrees-Bohrs-Radians)
 Mixed Optimization -- RFO/linear search
 Update second derivatives using D2CorX and points    1    2    3    4
 DE= -3.63D-03 DEPred=-3.81D-03 R= 9.54D-01
 TightC=F SS=  1.41D+00  RLast= 6.66D-02 DXNew= 8.4090D-02 1.9967D-01
 Trust test= 9.54D-01 RLast= 6.66D-02 DXMaxT set to 8.41D-02
 ITU=  1  0  0  0
 Use linear search instead of GDIIS.
     Eigenvalues ---   -0.07319   0.00738   0.00846   0.01030   0.01233
     Eigenvalues ---    0.01241   0.01713   0.01936   0.02244   0.02715
     Eigenvalues ---    0.02867   0.03086   0.03161   0.03783   0.04571
     Eigenvalues ---    0.08263   0.08900   0.09959   0.10224   0.10444
     Eigenvalues ---    0.10782   0.11002   0.12019   0.12952   0.14163
     Eigenvalues ---    0.15355   0.15536   0.18799   0.22636   0.24693
     Eigenvalues ---    0.26029   0.26294   0.26426   0.27666   0.28105
     Eigenvalues ---    0.29376   0.34127   0.37661   0.43603   0.50089
     Eigenvalues ---    0.51172   0.53025   0.55290   0.56333   0.69155
 RFO step:  Lambda=-1.02444301D-01 EMin=-7.31924444D-02
 Skip linear search -- no minimum in search direction.
 Maximum step size (   0.084) exceeded in Quadratic search.
    -- Step size scaled by   0.159
 Iteration  1 RMS(Cart)=  0.01732992 RMS(Int)=  0.00023785
 Iteration  2 RMS(Cart)=  0.00028908 RMS(Int)=  0.00008736
 Iteration  3 RMS(Cart)=  0.00000015 RMS(Int)=  0.00008736
 Variable       Old X    -DE/DX   Delta X   Delta X   Delta X     New X
                                 (Linear)    (Quad)   (Total)
[...]
   yx        -0.272592D+02     -0.403939D+01     -0.449443D+01
   yy         0.836026D+02      0.123886D+02      0.137842D+02
   zx        -0.102758D+02     -0.152271D+01     -0.169425D+01
   zy         0.131374D+02      0.194676D+01      0.216606D+01
   zz         0.135166D+03      0.200295D+02      0.222858D+02

 First dipole hyperpolarizability, Beta (dipole orientation).
 ||, _|_  parallel and perpendicular components, (z) with respect to z axis,
 vector components x,y,z.  Values do not include the 1/n! factor of 1/2.
 (esu units = statvolt**-1 cm**4 , SI units = C**3 m**3 J**-2)
 Beta(0;0,0):
               (au)            (10**-30 esu)      (10**-50 SI)
   || (z)     0.918881D+02      0.793842D+00      0.294626D+00
   _|_(z)     0.306294D+02      0.264614D+00      0.982088D-01
   x         -0.335874D+03     -0.290169D+01     -0.107693D+01
   y         -0.310303D+03     -0.268078D+01     -0.994945D+00
   z          0.459441D+03      0.396921D+01      0.147313D+01
   ||         0.129643D+03      0.112002D+01      0.415683D+00
   xxx       -0.188709D+02     -0.163030D+00     -0.605070D-01
   xxy       -0.540165D+01     -0.466660D-01     -0.173196D-01
   yxy        0.383513D+02      0.331326D+00      0.122968D+00
   yyy       -0.100459D+03     -0.867890D+00     -0.322109D+00
   xxz        0.193404D+02      0.167086D+00      0.620124D-01
   yxz       -0.541104D+02     -0.467472D+00     -0.173498D+00
   yyz       -0.222516D+02     -0.192236D+00     -0.713466D-01
   zxz       -0.131438D+03     -0.113552D+01     -0.421439D+00
   zyz        0.242650D+01      0.209631D-01      0.778024D-02
   zzz        0.156058D+03      0.134822D+01      0.500378D+00

 ----------------------------------------------------------------------
 Unable to Open any file for archive entry.
 1|1|UNPC-SKCH-134-020|Freq|RPM6|ZDO|C8H6O2S1|AL6323|14-Nov-2025|0||#N 
 Geom=AllCheck Guess=TCheck SCRF=Check GenChk RPM6/ZDO Freq||Title Card
  Required||0,1|C,-5.581822115,-1.6263547378,-0.0774518456|C,-4.1732193
 561,-1.7242499881,0.0801447017|C,-3.5057409288,-0.5366911141,0.2236240
 029|C,-4.1883914046,0.7278843568,0.2238407825|C,-5.5420286226,0.826994
 843,0.0664862662|C,-6.2403274312,-0.401991975,-0.0865417875|H,-1.50542
 09952,-0.2551773432,1.2045240328|H,-6.1545125908,-2.5467318946,-0.1940
 46532|H,-3.6790082854,-2.6900400842,0.0870409109|C,-2.1636952679,0.085
 1381145,0.4133393307|C,-2.8930320974,1.4957062516,0.4400641775|H,-6.07
 10887113,1.7757627606,0.0554147468|H,-7.3221555246,-0.3721162568,-0.21
 27349472|H,-2.8116273513,2.2068711912,1.2609544005|O,-2.3278359087,2.0
 365008052,-0.7648218989|O,0.011440229,0.8064606036,-1.0368308724|S,-1.
 4138322782,0.6000387472,-1.2094511388||Version=EM64W-G16RevC.01|HF=0.0
 032425|RMSD=2.927e-009|RMSF=3.455e-007|ZeroPoint=0.1152626|Thermal=0.1
 238526|ETot=0.1270951|HTot=0.1280393|GTot=0.0844405|Dipole=-1.2281994,
 -0.903434,0.2023225|DipoleDeriv=-0.0916789,-0.1110042,0.009687,-0.0515
 147,-0.1506687,-0.0162354,-0.0068992,-0.0194445,-0.1053432,-0.2599245,
 0.0590791,-0.007179,-0.0164505,-0.2598486,0.0086168,-0.0132653,-0.0037
 921,-0.2014465,0.3287725,0.1523007,-0.0774394,-0.0602724,-0.0387143,-0
 .0478331,0.1091753,0.0604846,0.0153571,-0.4661372,-0.1774009,0.044944,
 0.1401386,-0.0881151,0.010074,-0.0421642,-0.049199,-0.1753554,-0.02627
 34,0.1209833,-0.0139508,0.0103806,-0.1090662,-0.0051065,0.0011956,0.00
 45601,-0.0713752,-0.335432,0.0000866,0.0129704,-0.0122285,-0.2645846,0
 .0167474,-0.0205526,-0.0055771,-0.1886457,0.1832738,-0.0610569,0.14820
 04,-0.0300319,0.156747,-0.0517942,0.0700498,-0.055183,0.2596308,0.1495
 532,0.1091293,0.0002455,0.1169581,0.2508026,0.008056,0.0081153,0.01843
 04,0.1456362,0.1133906,-0.1059592,-0.0001177,-0.0466242,0.3033103,-0.0
 19523,-0.0030584,-0.0036916,0.1635889,-0.7762437,-0.0905195,-0.0550522
 ,-0.0272987,-0.4410735,0.0596505,0.0761845,0.1336908,-0.6170988,0.7485
 263,0.294151,-0.1660879,0.2985583,0.1839604,-0.130684,-0.4015342,-0.19
 37575,0.4158219,0.1649024,-0.0937112,-0.0099582,-0.144963,0.252822,0.0
 037132,-0.0034358,-0.0029558,0.1468031,0.3440161,-0.0013654,0.0030388,
 -0.0089102,0.0822907,-0.0040285,0.0237943,-0.0032286,0.1565709,0.01096
 12,-0.0066143,0.0296462,-0.0114258,0.1636065,0.1170177,0.0360247,0.125
 8245,0.1650616,-0.9515798,0.1301993,0.1136694,0.1387869,-0.6967587,-0.
 0129302,0.5850392,-0.1471285,-0.7382201,-1.2956249,-0.0041619,0.459523
 2,-0.1944316,-0.5423923,0.0320662,-0.279011,-0.0402729,-0.6073729,2.15
 94053,-0.21409,-0.492187,-0.1005924,1.1975955,0.0322225,-0.1397218,0.1
 812802,1.2363519|Polar=137.855757,10.5043529,97.4452456,-12.2582304,-2
 .8678939,44.2293733|HyperPolar=-222.2121209,-76.8099013,35.0716068,-72
 .7154904,-78.9212503,-6.874337,-23.5389838,58.8573839,34.0824287,-27.5
 534829|PG=C01 [X(C8H6O2S1)]|NImag=0||0.60020554,-0.03787066,0.63773957
 ,0.05080766,0.02268883,0.15183292,-0.27175346,-0.04491975,-0.02641011,
 0.58112301,0.07786366,-0.09371730,0.00735552,0.03416408,0.69949575,-0.
 01940556,-0.00681051,-0.06765293,0.05320555,0.03461532,0.14631028,-0.0
 5145364,-0.02896063,-0.00804644,-0.15697247,-0.18837031,-0.02173116,0.
 59708067,-0.13199001,0.05430021,-0.01244127,-0.06483302,-0.33714947,-0
 .02271395,0.18052329,0.76665987,-0.01521044,-0.00019865,0.00374517,-0.
 01384964,-0.03604406,-0.06258127,0.06106564,0.05147940,0.15038678,-0.0
 7808429,0.04259552,-0.00619952,0.08475485,0.04197933,0.01193498,-0.097
 14124,0.04125093,-0.00101024,0.87035027,0.04540455,-0.03883582,0.00339
 964,-0.05286319,-0.08382589,-0.01142640,0.12193614,-0.20882330,0.00423
 171,-0.02032524,0.47545423,-0.00633298,0.00298312,-0.00487132,0.006094
 57,-0.00017161,0.00718438,0.00531701,-0.00435052,-0.06500122,0.0804134
 9,0.01833392,0.15627112,0.09120693,-0.05300561,0.00702149,-0.07944903,
 -0.03834673,-0.01118280,-0.03945736,0.12507296,0.00235507,-0.40879628,
 -0.02906811,-0.04341355,0.69952002,0.04457958,-0.08788930,-0.00003177,
 -0.04161312,-0.02644412,-0.00635460,0.02738650,0.03971924,0.00557145,0
 .09426310,-0.09558570,0.00953611,-0.04335338,0.58318749,0.01294869,-0.
 01160223,0.00612447,-0.01174630,-0.00621747,-0.00335924,-0.00341869,0.
 01705460,0.00703436,-0.03640524,-0.00486531,-0.06350837,0.06427779,0.0
 1965680,0.14984241,-0.15209774,0.16364051,-0.00098968,-0.03738482,0.03
 182640,-0.00333834,-0.00883309,-0.00127858,-0.00029148,-0.05154616,-0.
 02890315,-0.00838270,-0.13263193,-0.13625104,-0.01580334,0.59125235,0.
 04241648,-0.28837208,-0.00723744,0.12888849,0.04014842,0.01698786,0.00
 066683,-0.10824701,-0.00677275,-0.12998408,0.05470946,-0.01291064,-0.0
 1256089,-0.23053623,-0.01077167,-0.03241900,0.64325989,-0.00786710,0.0
 0692024,-0.06653251,0.00227254,0.00566632,0.00616404,-0.00037065,-0.00
 601594,-0.00501006,-0.01411397,-0.00062770,0.00435540,-0.00857626,-0.0
 2557568,-0.06818047,0.05129369,0.02442683,0.15076129,-0.00042080,0.000
 10839,0.00056041,0.00028168,0.00077884,-0.00005418,-0.02469503,-0.0010
 4560,-0.01866841,-0.00217240,0.00026943,-0.00001249,-0.00011058,0.0001
 2387,0.00048191,0.00013395,-0.00017518,0.00001684,0.12741787,-0.000173
 91,-0.00009890,0.00041267,-0.00021947,-0.00005014,0.00014536,-0.006462
 39,0.00591747,-0.00856025,-0.00017892,-0.00009148,0.00032586,0.0003154
 1,0.00026594,-0.00004187,-0.00006833,-0.00022633,0.00000304,-0.0433704
 8,0.06111278,0.00025817,0.00008793,0.00001798,0.00009924,-0.00037291,-
 0.00008273,-0.01047533,0.00104248,-0.00232687,0.00033301,-0.00000049,-
 0.00013869,0.00007431,0.00001938,-0.00012433,0.00006232,0.00014444,-0.
 00001097,0.10377771,-0.05537506,0.15893090,-0.08453163,-0.08218092,-0.
 00945800,-0.03222848,-0.02418910,-0.00571586,-0.00312634,0.00089575,-0
 .00088113,0.00058061,0.00000176,0.00008318,-0.00095103,0.00131237,-0.0
 0074159,0.00696299,0.00806839,0.00060528,-0.00002535,-0.00000125,-0.00
 000880,0.11357533,-0.08210201,-0.16562291,-0.01626276,-0.00996279,-0.0
 0085044,-0.00155041,-0.00003563,0.00018821,-0.00024133,0.00077162,0.00
 029968,0.00015924,0.00133772,-0.00231139,-0.00030829,-0.00627909,-0.04
 116464,-0.00329416,-0.00004494,0.00004386,-0.00008260,0.09577986,0.209
 44590,-0.00951788,-0.01623868,-0.04366782,-0.00489897,-0.00314498,0.00
 498290,-0.00095180,-0.00019123,0.00465965,0.00001452,0.00000805,0.0002
 2577,-0.00072356,-0.00030281,0.00585607,-0.00016691,-0.00168439,0.0054
 8219,-0.00002441,-0.00003060,0.00001765,0.01567593,0.02126865,0.026353
 41,-0.02686179,0.02698368,-0.00227643,-0.07316588,0.07538664,0.0002779
 3,0.00799409,-0.01080883,-0.00022132,-0.00070286,-0.00102248,-0.000877
 40,0.00031490,-0.00018894,0.00000329,-0.00296210,-0.00056549,-0.000919
 03,0.00012414,-0.00021871,0.00003904,-0.00065240,0.00025835,0.00004786
 ,0.09627413,0.01282075,-0.00451091,0.00096895,0.07547281,-0.18296657,0
 .00137380,0.00326559,-0.04057996,-0.00224808,-0.00106976,-0.00163613,-
 0.00056931,-0.00026292,0.00026483,0.00001224,-0.00020421,0.00043145,-0
 .00023637,-0.00010102,0.00011345,-0.00012406,-0.00009418,0.00088562,0.
 00008261,-0.09038529,0.22806736,-0.00307149,0.00258573,0.00491893,0.00
 028442,0.00145820,-0.04137636,0.00027310,-0.00395280,0.00569976,-0.000
 96272,-0.00070101,0.00648508,0.00004121,0.00002404,0.00005100,-0.00085
 038,-0.00032905,0.00456395,-0.00020345,-0.00015260,0.00013952,0.000021
 35,0.00012788,-0.00090952,0.00364956,0.00028208,0.02391499,0.00121539,
 -0.00184523,-0.00092471,-0.01623375,-0.01245282,-0.00334739,-0.2064813
 7,-0.09476756,-0.01876414,-0.09726090,0.03710766,-0.01314259,-0.000982
 71,0.00263238,-0.00052958,-0.00100909,-0.00027812,-0.00008748,-0.10044
 753,0.03667228,-0.08836399,-0.00002981,0.00040614,0.00009842,-0.000289
 54,0.00071958,0.00024686,0.51673475,0.00164040,-0.00336063,-0.00065555
 ,-0.02651971,-0.00988327,-0.00417928,-0.06316190,-0.07151893,-0.002803
 40,0.03309721,0.00040373,0.00190799,0.00005901,-0.00017024,-0.00097926
 ,-0.00017593,0.00180065,0.00000864,0.03650636,-0.05617767,0.04060831,-
 0.00050604,0.00009960,0.00003982,0.00039890,0.00047112,0.00039280,-0.0
 1693227,0.35201574,-0.00118398,0.00014667,0.00631813,-0.00087781,-0.00
 123847,0.00162805,-0.03309982,-0.01400510,-0.05890381,-0.01323067,0.00
 302188,0.01779764,-0.00047282,-0.00045596,0.00361515,-0.00009764,-0.00
 040084,-0.00002676,-0.08355250,0.04083148,-0.13551709,0.00006437,-0.00
 003402,-0.00029597,0.00015033,0.00010390,-0.00182881,0.09893794,-0.074
 94066,0.33345137,0.00168842,0.00046803,0.00029617,-0.00149268,-0.00103
 435,-0.00059166,0.00563111,-0.03277035,-0.00447146,-0.15648958,-0.0604
 5993,-0.02512383,-0.02573737,-0.01372577,-0.00483148,-0.00225032,0.003
 06298,-0.00039302,-0.00610996,0.01404472,-0.00281588,-0.00048880,-0.00
 066623,-0.00002458,0.00026956,-0.00018448,0.00011398,-0.05942079,0.037
 09118,-0.00554047,0.37389235,0.00064671,0.00019431,0.00022471,0.000208
 18,-0.00308359,0.00023781,-0.03141435,-0.09363233,-0.01139381,-0.08557
 605,-0.07626892,-0.01656784,-0.00325143,0.00275269,-0.00037606,0.00066
 941,0.00099163,0.00007738,0.00851680,-0.00886794,0.00428868,-0.0001790
 3,-0.00030947,-0.00010106,-0.00000668,-0.00044550,-0.00014186,0.051631
 22,-0.11501474,-0.00157044,0.06186813,0.48103417,-0.00057314,0.0000633
 4,0.00000473,0.00005392,-0.00082147,0.00378731,-0.00417340,-0.01154201
 ,0.01485309,-0.03346043,-0.02036979,-0.06377178,-0.00098112,-0.0017199
 9,0.00103290,-0.00138759,-0.00103039,0.00617897,-0.00725163,0.01407151
 ,0.00244104,0.00021959,0.00024854,-0.00073295,-0.00019485,0.00014711,-
 0.00032294,0.00298420,-0.02252231,-0.04905419,-0.04307575,0.09070763,0
 .43892052,-0.00111587,-0.00137938,-0.00077324,0.00023623,-0.00007259,0
 .00001012,-0.00229411,-0.00010629,-0.00110815,-0.02868079,0.02816327,-
 0.00255845,-0.07911464,0.07952988,0.00001267,0.00682403,-0.01015698,-0
 .00042263,-0.00003817,-0.00001589,-0.00004052,0.00022699,-0.00017532,0
 .00006145,-0.00004992,0.00011315,0.00012549,-0.00029150,0.00002303,0.0
 0003861,-0.00019353,-0.00000222,0.00038514,0.10375662,-0.00159594,-0.0
 0178273,-0.00056527,-0.00027989,0.00047521,0.00002072,0.00035247,-0.00
 000347,-0.00031418,0.01297106,-0.00380877,0.00092238,0.07920464,-0.176
 17544,0.00203760,0.00452111,-0.03762226,-0.00188411,0.00004528,-0.0000
 2356,0.00006266,0.00011659,-0.00041434,0.00001474,0.00009442,-0.000183
 20,0.00006012,-0.00050434,-0.00010238,0.00009409,0.00098374,0.00076978
 ,-0.00026596,-0.09521998,0.21930190,-0.00070676,-0.00062685,0.00460984
 ,-0.00009129,0.00000360,-0.00000486,-0.00109714,-0.00037705,0.00680201
 ,-0.00346114,0.00280178,0.00592467,-0.00013355,0.00202962,-0.04261081,
 0.00048369,-0.00351416,0.00533612,-0.00005250,-0.00004728,0.00003343,0
 .00008469,-0.00002626,-0.00037843,0.00012665,0.00004843,-0.00102791,0.
 00003813,0.00013491,-0.00068654,0.00006963,-0.00010219,-0.00137416,0.0
 0437704,-0.00043103,0.02442011,-0.02609904,0.01567358,-0.00284459,-0.0
 0021075,0.00134246,-0.00061022,0.00012400,0.00006570,-0.00014406,-0.00
 036290,-0.00162291,-0.00069854,-0.02610334,-0.01414899,-0.00453656,-0.
 21655929,0.00498907,-0.02044667,-0.00005832,0.00003565,-0.00006583,0.0
 0055138,0.00057706,0.00028680,-0.00023211,0.00013454,0.00000552,0.0003
 7448,0.00013586,0.00012191,-0.00022954,-0.00007757,0.00017476,0.000498
 76,-0.00049596,0.00013363,0.26842226,0.02962003,-0.00847369,0.00270996
 ,0.00117906,-0.00256447,-0.00032789,-0.00013484,0.00006996,-0.00001613
 ,-0.00109490,-0.00255919,-0.00051349,-0.02804784,-0.00671898,-0.004043
 33,0.00501234,-0.03373403,0.00101850,0.00000350,0.00000118,0.00000485,
 0.00088394,-0.00042184,0.00017224,0.00043076,0.00005686,0.00006509,-0.
 00002190,0.00006098,0.00001632,-0.00025831,0.00010765,-0.00011552,-0.0
 0083379,-0.00026842,-0.00006024,-0.00662233,0.05451000,-0.00202149,0.0
 0103817,0.00515678,-0.00065561,-0.00030454,0.00574382,-0.00009715,-0.0
 0000056,0.00021745,-0.00066678,-0.00070076,0.00446097,-0.00538211,-0.0
 0240281,0.00492071,-0.02045523,0.00107520,-0.04342927,-0.00009489,0.00
 000009,0.00003074,0.00029983,0.00013262,-0.00157600,0.00003231,0.00003
 380,-0.00028780,0.00017937,0.00020759,-0.00081279,0.00003390,-0.000044
 34,-0.00016240,0.00011857,-0.00002236,-0.00088516,0.02862476,0.0010024
 0,0.02659448,-0.00028616,0.00011492,-0.00003809,0.00057702,-0.00007184
 ,0.00031980,-0.00185969,-0.00116906,0.00019721,-0.00842059,-0.01773073
 ,-0.01649514,0.00063768,-0.00063205,0.00000448,-0.00035214,-0.00031807
 ,0.00057805,0.00020977,0.00012377,0.00034128,0.00004462,0.00004550,-0.
 00005169,-0.00007866,-0.00001055,-0.00006892,0.00159208,0.00967724,0.0
 0750364,-0.03422446,-0.00707718,-0.01597232,0.00006574,-0.00016907,-0.
 00018940,0.00002079,-0.00006384,-0.00003225,0.04171777,0.00027057,-0.0
 0002162,0.00003960,-0.00032968,-0.00028207,0.00037172,-0.00012843,-0.0
 0092219,-0.00014600,-0.01015674,-0.00889790,-0.00989545,0.00016189,-0.
 00019850,-0.00021729,-0.00000290,0.00010935,0.00028648,0.00015622,-0.0
 0007783,0.00000655,-0.00002648,-0.00004948,-0.00006741,0.00002658,-0.0
 0002905,0.00000345,0.00246442,-0.01760213,-0.01387645,-0.00561119,-0.1
 1483409,-0.09168697,0.00000100,0.00017365,-0.00010259,-0.00004065,0.00
 001309,-0.00001072,0.01429873,0.13566792,0.00008843,0.00014910,0.00001
 136,0.00019086,0.00000191,-0.00012760,-0.00063499,-0.00051590,-0.00016
 677,-0.00534533,-0.00969420,-0.00317423,0.00011538,0.00002583,0.000021
 15,0.00001241,0.00000453,-0.00002807,0.00019000,-0.00002604,0.00055759
 ,-0.00005809,-0.00009630,0.00001141,0.00001985,-0.00006908,0.00002671,
 0.00030844,-0.00203803,0.00268131,-0.01412886,-0.08776536,-0.13172960,
 -0.00007803,0.00015864,0.00007958,-0.00006659,0.00001039,0.00000809,0.
 00828558,0.10998997,0.17229886,-0.00131353,-0.00012411,-0.00005880,0.0
 0176517,0.00019147,-0.00045974,-0.00271252,-0.00167241,-0.00307916,-0.
 02338623,-0.02108615,0.02495643,0.00139151,-0.00022991,0.00061505,0.00
 033221,-0.00138506,-0.00151463,-0.00015661,-0.00073353,-0.00000711,0.0
 0028163,0.00039311,0.00020383,-0.00031742,0.00011003,0.00010098,0.0126
 3724,0.00859434,-0.00439790,-0.06231967,-0.01720230,0.05854484,0.00040
 016,-0.00027353,0.00026175,0.00006165,-0.00006976,0.00001291,0.0002836
 3,-0.00252245,0.01038222,0.13481359,0.00024686,0.00001312,-0.00008012,
 -0.00062323,-0.00027357,-0.00064057,-0.00003633,-0.00171419,0.00207856
 ,-0.01421508,-0.00728369,0.00930885,0.00002476,-0.00014911,0.00023543,
 -0.00052967,0.00029397,-0.00048843,-0.00105527,-0.00173887,0.00010515,
 0.00000243,0.00005770,0.00008708,-0.00002986,0.00020724,0.00002144,0.0
 0241627,-0.06056907,0.04613321,-0.03240569,-0.08169885,0.08681035,-0.0
 0004015,-0.00044861,0.00021083,0.00026886,-0.00002471,0.00002488,0.002
 85687,0.00885969,-0.01059510,-0.02224823,0.25746880,0.00161195,-0.0001
 6531,0.00021513,-0.00146310,-0.00045709,0.00036380,0.00404158,0.002630
 63,0.00146919,0.02156952,0.01601957,-0.00102866,-0.00291018,0.00018181
 ,-0.00093587,0.00032218,0.00183999,0.00054119,-0.00004515,0.00089052,0
 .00066867,-0.00020534,-0.00034925,-0.00016655,0.00038514,-0.00020164,-
 0.00021766,-0.00335354,0.04508324,-0.01552372,0.05145133,0.05250188,-0
 .17902044,-0.00028642,0.00041599,-0.00033893,-0.00014610,0.00012019,-0
 .00004480,0.01461835,0.00485634,-0.03658999,-0.10140091,-0.10626019,0.
 25661653,-0.00027651,0.00007128,-0.00024227,-0.00020723,-0.00064701,-0
 .00025823,0.00274404,0.00124498,0.00325530,-0.00206807,0.00088391,-0.0
 0025280,0.00049119,-0.00002146,-0.00015828,-0.00085672,-0.00051539,-0.
 00019660,-0.00227371,0.00098893,-0.00211184,0.00018695,0.00035896,0.00
 008505,-0.00038842,0.00067158,0.00018015,-0.01947217,-0.00651700,0.007
 84731,0.00260618,0.00173020,-0.00260191,0.00020085,-0.00037064,0.00006
 694,0.00054623,-0.00003609,0.00011977,-0.00041455,-0.00101679,-0.00059
 027,-0.01860682,0.00508949,0.00610540,0.48040492,0.00002137,0.00001474
 ,-0.00004966,-0.00023049,-0.00003251,0.00003649,0.00015742,-0.00001834
 ,0.00103656,-0.00000388,0.00053595,-0.00019716,-0.00005576,0.00010909,
 -0.00008767,-0.00014180,0.00004487,0.00001767,0.00027422,-0.00016425,-
 0.00062360,0.00002761,0.00004033,-0.00000502,0.00007113,0.00003499,-0.
 00000230,-0.00863417,0.00001618,0.00265830,0.00044595,-0.00005279,0.00
 113217,0.00002936,-0.00012126,-0.00000154,0.00010950,-0.00000067,0.000
 02100,-0.00025974,-0.00050798,0.00021292,0.01081787,-0.00009588,0.0017
 5198,0.06203534,0.02349818,0.00008376,0.00004253,0.00024718,0.00009983
 ,-0.00041709,-0.00000886,0.00248552,0.00073914,-0.00251857,0.00023295,
 -0.00005838,0.00040695,0.00001825,0.00001721,0.00014428,-0.00008490,0.
 00000789,0.00003272,-0.00272371,-0.00029434,0.00114217,0.00004221,0.00
 002220,-0.00003707,-0.00004455,0.00006701,-0.00015212,0.01775903,0.006
 81921,0.00798255,0.00002890,-0.00070534,-0.00156527,0.00002807,-0.0000
 3158,-0.00006355,0.00006644,0.00000719,-0.00006114,-0.00029409,-0.0002
 2840,0.00000038,0.00342708,0.00279751,0.00648249,0.03690481,0.00637611
 ,0.02788279,-0.00002482,0.00063186,-0.00042342,0.00036282,0.00165415,0
 .00094787,-0.01854678,-0.00861629,0.01082482,-0.00057663,-0.00068336,0
 .00042554,-0.00022620,0.00033759,-0.00017255,0.00097858,0.00026392,0.0
 0014045,0.00834149,-0.00073772,-0.00109536,-0.00037618,-0.00066239,-0.
 00011415,0.00072444,-0.00099529,0.00011450,-0.03063331,-0.01340975,0.0
 2778734,-0.03513105,0.01951620,0.04730987,-0.00043075,0.00061953,0.000
 08989,-0.00074427,0.00005377,-0.00001619,0.00048729,0.00245616,0.00130
 896,-0.04315429,0.06027822,0.00970600,-0.44261964,-0.06466475,-0.05803
 071,0.56157169,-0.00179677,0.00042253,-0.00047671,0.00247967,0.0010034
 2,0.00021429,-0.01558403,-0.00424458,0.00434148,-0.00432292,-0.0037872
 1,0.00169832,0.00177450,-0.00012147,0.00051330,0.00058449,-0.00188625,
 -0.00030198,-0.00099018,0.00006245,0.01020830,0.00008828,0.00008395,0.
 00009289,-0.00042460,-0.00018099,0.00025887,0.00138530,-0.02047097,0.0
 1351953,0.02915326,0.0