 Default is to use a total of   8 processors:
                                8 via shared-memory
                                1 via Linda
 Entering Link 1 = C:\G16W\l1.exe PID=     23300.
  
 Copyright (c) 1988-2019, Gaussian, Inc.  All Rights Reserved.
  
 This is part of the Gaussian(R) 16 program.  It is based on
 the Gaussian(R) 09 system (copyright 2009, Gaussian, Inc.),
 the Gaussian(R) 03 system (copyright 2003, Gaussian, Inc.),
 the Gaussian(R) 98 system (copyright 1998, Gaussian, Inc.),
 the Gaussian(R) 94 system (copyright 1995, Gaussian, Inc.),
 the Gaussian 92(TM) system (copyright 1992, Gaussian, Inc.),
 the Gaussian 90(TM) system (copyright 1990, Gaussian, Inc.),
 the Gaussian 88(TM) system (copyright 1988, Gaussian, Inc.),
 the Gaussian 86(TM) system (copyright 1986, Carnegie Mellon
 University), and the Gaussian 82(TM) system (copyright 1983,
 Carnegie Mellon University). Gaussian is a federally registered
 trademark of Gaussian, Inc.
  
 This software contains proprietary and confidential information,
 including trade secrets, belonging to Gaussian, Inc.
  
 This software is provided under written license and may be
 used, copied, transmitted, or stored only in accord with that
 written license.
  
 The following legend is applicable only to US Government
 contracts under FAR:
  
                    RESTRICTED RIGHTS LEGEND
  
 Use, reproduction and disclosure by the US Government is
 subject to restrictions as set forth in subparagraphs (a)
 and (c) of the Commercial Computer Software - Restricted
 Rights clause in FAR 52.227-19.
  
 Gaussian, Inc.
 340 Quinnipiac St., Bldg. 40, Wallingford CT 06492
  
  
 ---------------------------------------------------------------
 Warning -- This program may not be used in any manner that
 competes with the business of Gaussian, Inc. or will provide
 assistance to any competitor of Gaussian, Inc.  The licensee
 of this program is prohibited from giving any competitor of
 Gaussian, Inc. access to this program.  By using this program,
 the user acknowledges that Gaussian, Inc. is engaged in the
 business of creating and licensing software in the field of
 computational chemistry and represents and warrants to the
 licensee that it is not a competitor of Gaussian, Inc. and that
 it will not use this program in any manner prohibited above.
 ---------------------------------------------------------------
  

 Cite this work as:
 Gaussian 16, Revision C.01,
 M. J. Frisch, G. W. Trucks, H. B. Schlegel, G. E. Scuseria, 
 M. A. Robb, J. R. Cheeseman, G. Scalmani, V. Barone, 
 G. A. Petersson, H. Nakatsuji, X. Li, M. Caricato, A. V. Marenich, 
 J. Bloino, B. G. Janesko, R. Gomperts, B. Mennucci, H. P. Hratchian, 
 J. V. Ortiz, A. F. Izmaylov, J. L. Sonnenberg, D. Williams-Young, 
 F. Ding, F. Lipparini, F. Egidi, J. Goings, B. Peng, A. Petrone, 
 T. Henderson, D. Ranasinghe, V. G. Zakrzewski, J. Gao, N. Rega, 
 G. Zheng, W. Liang, M. Hada, M. Ehara, K. Toyota, R. Fukuda, 
 J. Hasegawa, M. Ishida, T. Nakajima, Y. Honda, O. Kitao, H. Nakai, 
 T. Vreven, K. Throssell, J. A. Montgomery, Jr., J. E. Peralta, 
 F. Ogliaro, M. J. Bearpark, J. J. Heyd, E. N. Brothers, K. N. Kudin, 
 V. N. Staroverov, T. A. Keith, R. Kobayashi, J. Normand, 
 K. Raghavachari, A. P. Rendell, J. C. Burant, S. S. Iyengar, 
 J. Tomasi, M. Cossi, J. M. Millam, M. Klene, C. Adamo, R. Cammi, 
 J. W. Ochterski, R. L. Martin, K. Morokuma, O. Farkas, 
 J. B. Foresman, and D. J. Fox, Gaussian, Inc., Wallingford CT, 2019.
 
 ******************************************
 Gaussian 16:  EM64W-G16RevC.01 30-May-2019
                14-Nov-2025 
 ******************************************
 %chk=C:\Users\al6323\OneDrive - Imperial College London\Desktop\TSR20251114\prod
 uct_endo_opt+freq.chk
 Default route: MaxDisk=10GB
 ---------------------------------------------------------------------
 # opt=(calcfc,tight,maxstep=5) freq rpm6 nosymm geom=connectivity scf
 ---------------------------------------------------------------------
 1/7=10,8=5,10=4,18=20,19=15,26=1,38=1,57=2/1,3;
 2/9=110,12=2,15=1,17=6,18=5,40=1/2;
 3/5=2,25=1,41=3900000,71=2,116=1,140=1/1,2,3;
 4/35=1/1;
 5/5=2,35=1,38=5/2;
 8/6=4,10=90,11=11/1;
 11/6=1,8=1,9=11,15=111,16=1,31=1/1,2,10;
 10/6=1,13=1,31=1/2;
 6/7=2,8=2,9=2,10=2,28=1/1;
 7/10=1,25=1,30=1/1,2,3,16;
 1/7=10,8=5,10=4,18=20,19=15,26=1/3(2);
 2/9=110,15=1/2;
 99//99;
 2/9=110,15=1/2;
 3/5=2,25=1,41=3900000,71=1,116=1,135=20/1,2,3;
 4/5=5,16=3,35=1/1;
 5/5=2,35=1,38=5/2;
 7/30=1/1,2,3,16;
 1/7=10,8=5,18=20,19=15,26=1/3(-5);
 2/9=110,15=1/2;
 6/7=2,8=2,9=2,10=2,19=2,28=1/1;
 99/9=1/99;
 -------------------
 Title Card Required
 -------------------
 Symbolic Z-matrix:
 Charge =  0 Multiplicity = 1
 C                    -5.60982  -1.65431   0.25422 
 C                    -4.28214  -1.7482   -0.24281 
 C                    -3.63205  -0.55779  -0.4344 
 C                    -4.25687   0.70661  -0.15862 
 C                    -5.53119   0.80129   0.32518 
 C                    -6.2102   -0.43102   0.52964 
 H                    -1.91313  -0.20119  -1.8347 
 H                    -6.16615  -2.57697   0.42112 
 H                    -3.83298  -2.71298  -0.45379 
 C                    -2.35489   0.06839  -0.88218 
 C                    -3.02691   1.48099  -0.60784 
 H                    -6.01372   1.74901   0.54698 
 H                    -7.23003  -0.4045    0.9123 
 H                    -3.12067   2.2656   -1.3574 
 O                    -2.17657   1.90142   0.47096 
 S                    -1.22709   0.42222   0.55439 
 O                    -1.27494  -0.53587   1.92138 
 

 GradGradGradGradGradGradGradGradGradGradGradGradGradGradGradGradGradGrad
 Berny optimization.
 Initialization pass.
                           ----------------------------
                           !    Initial Parameters    !
                           ! (Angstroms and Degrees)  !
 --------------------------                            --------------------------
 ! Name  Definition              Value          Derivative Info.                !
 --------------------------------------------------------------------------------
 ! R1    R(1,2)                  1.4208         calculate D2E/DX2 analytically  !
 ! R2    R(1,6)                  1.3902         calculate D2E/DX2 analytically  !
 ! R3    R(1,8)                  1.0903         calculate D2E/DX2 analytically  !
 ! R4    R(2,3)                  1.3698         calculate D2E/DX2 analytically  !
 ! R5    R(2,9)                  1.0849         calculate D2E/DX2 analytically  !
 ! R6    R(3,4)                  1.4371         calculate D2E/DX2 analytically  !
 ! R7    R(3,10)                 1.4912         calculate D2E/DX2 analytically  !
 ! R8    R(4,5)                  1.3664         calculate D2E/DX2 analytically  !
 ! R9    R(4,11)                 1.5213         calculate D2E/DX2 analytically  !
 ! R10   R(5,6)                  1.4218         calculate D2E/DX2 analytically  !
 ! R11   R(5,12)                 1.0864         calculate D2E/DX2 analytically  !
 ! R12   R(6,13)                 1.0896         calculate D2E/DX2 analytically  !
 ! R13   R(7,10)                 1.084          calculate D2E/DX2 analytically  !
 ! R14   R(10,16)                1.8603         calculate D2E/DX2 analytically  !
 ! R15   R(11,14)                1.0891         calculate D2E/DX2 analytically  !
 ! R16   R(11,15)                1.4365         calculate D2E/DX2 analytically  !
 ! R17   R(15,16)                1.7597         calculate D2E/DX2 analytically  !
 ! R18   R(16,17)                1.67           calculate D2E/DX2 analytically  !
 ! A1    A(2,1,6)              122.0739         calculate D2E/DX2 analytically  !
 ! A2    A(2,1,8)              118.3253         calculate D2E/DX2 analytically  !
 ! A3    A(6,1,8)              119.6007         calculate D2E/DX2 analytically  !
 ! A4    A(1,2,3)              115.7844         calculate D2E/DX2 analytically  !
 ! A5    A(1,2,9)              120.9087         calculate D2E/DX2 analytically  !
 ! A6    A(3,2,9)              123.3066         calculate D2E/DX2 analytically  !
 ! A7    A(2,3,4)              122.1022         calculate D2E/DX2 analytically  !
 ! A8    A(2,3,10)             144.4258         calculate D2E/DX2 analytically  !
 ! A9    A(4,3,10)              93.4714         calculate D2E/DX2 analytically  !
 ! A10   A(3,4,5)              122.3048         calculate D2E/DX2 analytically  !
 ! A11   A(3,4,11)              92.2739         calculate D2E/DX2 analytically  !
 ! A12   A(5,4,11)             145.4199         calculate D2E/DX2 analytically  !
 ! A13   A(4,5,6)              115.8661         calculate D2E/DX2 analytically  !
 ! A14   A(4,5,12)             123.1609         calculate D2E/DX2 analytically  !
 ! A15   A(6,5,12)             120.973          calculate D2E/DX2 analytically  !
 ! A16   A(1,6,5)              121.8653         calculate D2E/DX2 analytically  !
 ! A17   A(1,6,13)             119.683          calculate D2E/DX2 analytically  !
 ! A18   A(5,6,13)             118.4517         calculate D2E/DX2 analytically  !
 ! A19   A(3,10,7)             120.5604         calculate D2E/DX2 analytically  !
 ! A20   A(3,10,16)            111.5426         calculate D2E/DX2 analytically  !
 ! A21   A(7,10,16)            118.6059         calculate D2E/DX2 analytically  !
 ! A22   A(4,11,14)            120.0219         calculate D2E/DX2 analytically  !
 ! A23   A(4,11,15)            113.9418         calculate D2E/DX2 analytically  !
 ! A24   A(14,11,15)           110.9126         calculate D2E/DX2 analytically  !
 ! A25   A(11,15,16)            96.2565         calculate D2E/DX2 analytically  !
 ! A26   A(10,16,15)            78.2387         calculate D2E/DX2 analytically  !
 ! A27   A(10,16,17)           120.3718         calculate D2E/DX2 analytically  !
 ! A28   A(15,16,17)           120.3718         calculate D2E/DX2 analytically  !
 ! D1    D(6,1,2,3)             -0.0545         calculate D2E/DX2 analytically  !
 ! D2    D(6,1,2,9)           -179.8386         calculate D2E/DX2 analytically  !
 ! D3    D(8,1,2,3)            179.9399         calculate D2E/DX2 analytically  !
 ! D4    D(8,1,2,9)              0.1558         calculate D2E/DX2 analytically  !
 ! D5    D(2,1,6,5)              0.2304         calculate D2E/DX2 analytically  !
 ! D6    D(2,1,6,13)          -179.8395         calculate D2E/DX2 analytically  !
 ! D7    D(8,1,6,5)           -179.7639         calculate D2E/DX2 analytically  !
 ! D8    D(8,1,6,13)             0.1662         calculate D2E/DX2 analytically  !
 ! D9    D(1,2,3,4)             -0.4075         calculate D2E/DX2 analytically  !
 ! D10   D(1,2,3,10)           179.98           calculate D2E/DX2 analytically  !
 ! D11   D(9,2,3,4)            179.3708         calculate D2E/DX2 analytically  !
 ! D12   D(9,2,3,10)            -0.2417         calculate D2E/DX2 analytically  !
 ! D13   D(2,3,4,5)              0.7394         calculate D2E/DX2 analytically  !
 ! D14   D(2,3,4,11)          -178.9198         calculate D2E/DX2 analytically  !
 ! D15   D(10,3,4,5)          -179.4865         calculate D2E/DX2 analytically  !
 ! D16   D(10,3,4,11)            0.8544         calculate D2E/DX2 analytically  !
 ! D17   D(2,3,10,7)            51.2767         calculate D2E/DX2 analytically  !
 ! D18   D(2,3,10,16)          -94.9117         calculate D2E/DX2 analytically  !
 ! D19   D(4,3,10,7)          -128.3945         calculate D2E/DX2 analytically  !
 ! D20   D(4,3,10,16)           85.4171         calculate D2E/DX2 analytically  !
 ! D21   D(3,4,5,6)             -0.5329         calculate D2E/DX2 analytically  !
 ! D22   D(3,4,5,12)           179.4264         calculate D2E/DX2 analytically  !
 ! D23   D(11,4,5,6)           178.867          calculate D2E/DX2 analytically  !
 ! D24   D(11,4,5,12)           -1.1736         calculate D2E/DX2 analytically  !
 ! D25   D(3,4,11,14)          126.8904         calculate D2E/DX2 analytically  !
 ! D26   D(3,4,11,15)          -98.0663         calculate D2E/DX2 analytically  !
 ! D27   D(5,4,11,14)          -52.602          calculate D2E/DX2 analytically  !
 ! D28   D(5,4,11,15)           82.4412         calculate D2E/DX2 analytically  !
 ! D29   D(4,5,6,1)              0.0693         calculate D2E/DX2 analytically  !
 ! D30   D(4,5,6,13)          -179.8616         calculate D2E/DX2 analytically  !
 ! D31   D(12,5,6,1)          -179.891          calculate D2E/DX2 analytically  !
 ! D32   D(12,5,6,13)            0.1781         calculate D2E/DX2 analytically  !
 ! D33   D(3,10,16,15)         -88.7377         calculate D2E/DX2 analytically  !
 ! D34   D(3,10,16,17)          29.725          calculate D2E/DX2 analytically  !
 ! D35   D(7,10,16,15)         124.341          calculate D2E/DX2 analytically  !
 ! D36   D(7,10,16,17)        -117.1963         calculate D2E/DX2 analytically  !
 ! D37   D(4,11,15,16)          86.8531         calculate D2E/DX2 analytically  !
 ! D38   D(14,11,15,16)       -134.0602         calculate D2E/DX2 analytically  !
 ! D39   D(11,15,16,10)          2.5528         calculate D2E/DX2 analytically  !
 ! D40   D(11,15,16,17)       -115.9099         calculate D2E/DX2 analytically  !
 --------------------------------------------------------------------------------
 Trust Radius=5.00D-02 FncErr=1.00D-07 GrdErr=1.00D-07 EigMax=2.50D+02 EigMin=1.00D-04
 Number of steps in this run=     96 maximum allowed number of steps=    102.
 GradGradGradGradGradGradGradGradGradGradGradGradGradGradGradGradGradGrad

                          Input orientation:                          
 ---------------------------------------------------------------------
 Center     Atomic      Atomic             Coordinates (Angstroms)
 Number     Number       Type             X           Y           Z
 ---------------------------------------------------------------------
      1          6           0       -5.609815   -1.654314    0.254219
      2          6           0       -4.282138   -1.748202   -0.242813
      3          6           0       -3.632048   -0.557787   -0.434397
      4          6           0       -4.256872    0.706613   -0.158621
      5          6           0       -5.531191    0.801294    0.325179
      6          6           0       -6.210202   -0.431017    0.529637
      7          1           0       -1.913131   -0.201192   -1.834704
      8          1           0       -6.166153   -2.576970    0.421123
      9          1           0       -3.832978   -2.712976   -0.453786
     10          6           0       -2.354886    0.068386   -0.882184
     11          6           0       -3.026915    1.480994   -0.607841
     12          1           0       -6.013719    1.749007    0.546975
     13          1           0       -7.230025   -0.404501    0.912295
     14          1           0       -3.120668    2.265604   -1.357402
     15          8           0       -2.176571    1.901424    0.470960
     16         16           0       -1.227088    0.422221    0.554388
     17          8           0       -1.274938   -0.535873    1.921380
 ---------------------------------------------------------------------
                    Distance matrix (angstroms):
                    1          2          3          4          5
     1  C    0.000000
     2  C    1.420768   0.000000
     3  C    2.363922   1.369821   0.000000
     4  C    2.752248   2.456388   1.437068   0.000000
     5  C    2.457891   2.895285   2.455769   1.366352   0.000000
     6  C    1.390243   2.459489   2.755415   2.362922   1.421776
     7  H    4.487832   3.246468   2.245595   3.021007   4.331331
     8  H    1.090258   2.162679   3.351225   3.842314   3.438757
     9  H    2.186135   1.084916   2.164622   3.458380   3.980051
    10  C    3.854047   2.724535   1.491224   2.132704   3.476176
    11  C    4.152672   3.483754   2.133752   1.521269   2.757520
    12  H    3.439686   3.981534   3.457853   2.161242   1.086365
    13  H    2.149460   3.439454   3.844804   3.349788   2.164413
    14  H    4.915174   4.324576   3.014131   2.271230   3.284190
    15  O    4.947466   4.273483   2.997633   2.480242   3.533414
    16  S    4.859053   3.831396   2.778838   3.125516   4.326839
    17  O    4.777185   3.898298   3.332587   3.842149   4.738308
                    6          7          8          9         10
     6  C    0.000000
     7  H    4.909964   0.000000
     8  H    2.149147   5.368545   0.000000
     9  H    3.438845   3.449900   2.495530   0.000000
    10  C    4.135953   1.084026   4.818951   3.178720   0.000000
    11  C    3.883679   2.361241   5.232653   4.273507   1.588191
    12  H    2.188929   5.127426   4.330491   5.066206   4.272476
    13  H    1.089573   5.988047   2.468338   4.328413   5.216394
    14  H    4.514189   2.787659   5.990714   5.109811   2.374873
    15  O    4.659818   3.131530   5.997939   4.989141   2.285350
    16  S    5.055695   2.562628   5.779902   4.199588   1.860340
    17  O    5.128818   3.824588   5.508252   4.113972   3.064538
                   11         12         13         14         15
    11  C    0.000000
    12  H    3.213477   0.000000
    13  H    4.850984   2.500092   0.000000
    14  H    1.089148   3.501895   5.400723   0.000000
    15  O    1.436543   3.840927   5.572205   2.089701   0.000000
    16  S    2.389802   4.967117   6.070158   3.261694   1.759694
    17  O    3.678877   5.437436   6.041405   4.690992   2.976085
                   16         17
    16  S    0.000000
    17  O    1.670000   0.000000
 Symmetry turned off by external request.
 Stoichiometry    C8H6O2S
 Framework group  C1[X(C8H6O2S)]
 Deg. of freedom    45
 Full point group                 C1      NOp   1
 Rotational constants (GHZ):           1.9724616           0.7942409           0.6871855
 Standard basis: VSTO-6G (5D, 7F)
    55 basis functions,   336 primitive gaussians,    56 cartesian basis functions
    28 alpha electrons       28 beta electrons
       nuclear repulsion energy       324.4716246528 Hartrees.
 Integral buffers will be    131072 words long.
 Regular integral format.
 Two-electron integral symmetry is turned off.
 Do NDO integrals.
 One-electron integrals computed using PRISM.
 NBasis=    55 RedAO= F EigKep=  0.00D+00  NBF=    55
 NBsUse=    55 1.00D-04 EigRej=  0.00D+00 NBFU=    55
 Nonelectrostatic core Hamiltonian diagonalized for initial guess.
 Keep J ints in memory in canonical form, NReq=1858957.
 Overlap will be assumed to be unity.
 Requested convergence on RMS density matrix=1.00D-08 within 128 cycles.
 Requested convergence on MAX density matrix=1.00D-06.
 Requested convergence on             energy=1.00D-06.
 No special actions if energy rises.
 SCF Done:  E(RPM6) =  0.418907572102E-01 A.U. after   23 cycles
            NFock= 22  Conv=0.33D-08     -V/T= 1.0004
 Range of M.O.s used for correlation:     1    55
 NBasis=    55 NAE=    28 NBE=    28 NFC=     0 NFV=     0
 NROrb=     55 NOA=    28 NOB=    28 NVA=    27 NVB=    27
 Symmetrizing basis deriv contribution to polar:
 IMax=3 JMax=2 DiffMx= 0.00D+00
 G2DrvN: will do    18 centers at a time, making    1 passes.
 Calling FoFCou, ICntrl=  3107 FMM=F I1Cent=   0 AccDes= 0.00D+00.
 End of G2Drv F.D. properties file   721 does not exist.
 End of G2Drv F.D. properties file   722 does not exist.
 End of G2Drv F.D. properties file   788 does not exist.
          IDoAtm=11111111111111111
          Differentiating once with respect to nuclear coordinates.
          Electric field/nuclear overlap derivatives assumed to be zero.
 Keep J ints in memory in canonical form, NReq=1860754.
          There are    54 degrees of freedom in the 1st order CPHF.  IDoFFX=5 NUNeed=    54.
 LinEq1:  Iter=  0 NonCon=    51 RMS=1.12D-02 Max=9.13D-02 NDo=    51
 AX will form    54 AO Fock derivatives at one time.
 LinEq1:  Iter=  1 NonCon=    51 RMS=4.09D-03 Max=4.76D-02 NDo=    54
 LinEq1:  Iter=  2 NonCon=    51 RMS=1.12D-03 Max=1.21D-02 NDo=    54
 LinEq1:  Iter=  3 NonCon=    51 RMS=2.83D-04 Max=2.59D-03 NDo=    54
 LinEq1:  Iter=  4 NonCon=    51 RMS=8.42D-05 Max=4.76D-04 NDo=    54
 LinEq1:  Iter=  5 NonCon=    51 RMS=1.75D-05 Max=1.30D-04 NDo=    54
 LinEq1:  Iter=  6 NonCon=    51 RMS=4.61D-06 Max=5.28D-05 NDo=    54
 LinEq1:  Iter=  7 NonCon=    51 RMS=1.43D-06 Max=1.49D-05 NDo=    54
 LinEq1:  Iter=  8 NonCon=    51 RMS=3.72D-07 Max=3.50D-06 NDo=    54
 LinEq1:  Iter=  9 NonCon=    33 RMS=9.91D-08 Max=9.62D-07 NDo=    54
 LinEq1:  Iter= 10 NonCon=    12 RMS=2.14D-08 Max=2.03D-07 NDo=    33
 LinEq1:  Iter= 11 NonCon=     0 RMS=5.12D-09 Max=4.95D-08 NDo=    12
 Linear equations converged to 1.000D-08 1.000D-07 after    11 iterations.
 End of Minotr F.D. properties file   721 does not exist.
 End of Minotr F.D. properties file   722 does not exist.
 End of Minotr F.D. properties file   788 does not exist.

 **********************************************************************

            Population analysis using the SCF Density.

 **********************************************************************

 Alpha  occ. eigenvalues --   -1.18810  -1.10384  -1.02193  -1.00550  -0.96903
 Alpha  occ. eigenvalues --   -0.89511  -0.86885  -0.79359  -0.77480  -0.71448
 Alpha  occ. eigenvalues --   -0.65732  -0.62450  -0.61609  -0.57905  -0.57012
 Alpha  occ. eigenvalues --   -0.54139  -0.53003  -0.50878  -0.48751  -0.47867
 Alpha  occ. eigenvalues --   -0.45975  -0.45112  -0.43206  -0.39850  -0.39368
 Alpha  occ. eigenvalues --   -0.37421  -0.36523  -0.33327
 Alpha virt. eigenvalues --   -0.03590  -0.02270  -0.00562   0.00407   0.03212
 Alpha virt. eigenvalues --    0.07669   0.08008   0.09972   0.10081   0.10860
 Alpha virt. eigenvalues --    0.14249   0.14826   0.15689   0.15876   0.16451
 Alpha virt. eigenvalues --    0.16598   0.16790   0.17188   0.18019   0.18406
 Alpha virt. eigenvalues --    0.18853   0.18943   0.19603   0.20417   0.21249
 Alpha virt. eigenvalues --    0.21702   0.21999
          Condensed to atoms (all electrons):
               1          2          3          4          5          6
     1  C    4.109673   0.000000   0.000000   0.000000   0.000000   0.000000
     2  C    0.000000   4.156539   0.000000   0.000000   0.000000   0.000000
     3  C    0.000000   0.000000   3.977138   0.000000   0.000000   0.000000
     4  C    0.000000   0.000000   0.000000   4.131605   0.000000   0.000000
     5  C    0.000000   0.000000   0.000000   0.000000   4.086760   0.000000
     6  C    0.000000   0.000000   0.000000   0.000000   0.000000   4.161353
     7  H    0.000000   0.000000   0.000000   0.000000   0.000000   0.000000
     8  H    0.000000   0.000000   0.000000   0.000000   0.000000   0.000000
     9  H    0.000000   0.000000   0.000000   0.000000   0.000000   0.000000
    10  C    0.000000   0.000000   0.000000   0.000000   0.000000   0.000000
    11  C    0.000000   0.000000   0.000000   0.000000   0.000000   0.000000
    12  H    0.000000   0.000000   0.000000   0.000000   0.000000   0.000000
    13  H    0.000000   0.000000   0.000000   0.000000   0.000000   0.000000
    14  H    0.000000   0.000000   0.000000   0.000000   0.000000   0.000000
    15  O    0.000000   0.000000   0.000000   0.000000   0.000000   0.000000
    16  S    0.000000   0.000000   0.000000   0.000000   0.000000   0.000000
    17  O    0.000000   0.000000   0.000000   0.000000   0.000000   0.000000
               7          8          9         10         11         12
     1  C    0.000000   0.000000   0.000000   0.000000   0.000000   0.000000
     2  C    0.000000   0.000000   0.000000   0.000000   0.000000   0.000000
     3  C    0.000000   0.000000   0.000000   0.000000   0.000000   0.000000
     4  C    0.000000   0.000000   0.000000   0.000000   0.000000   0.000000
     5  C    0.000000   0.000000   0.000000   0.000000   0.000000   0.000000
     6  C    0.000000   0.000000   0.000000   0.000000   0.000000   0.000000
     7  H    0.808888   0.000000   0.000000   0.000000   0.000000   0.000000
     8  H    0.000000   0.851168   0.000000   0.000000   0.000000   0.000000
     9  H    0.000000   0.000000   0.837900   0.000000   0.000000   0.000000
    10  C    0.000000   0.000000   0.000000   4.436000   0.000000   0.000000
    11  C    0.000000   0.000000   0.000000   0.000000   3.826232   0.000000
    12  H    0.000000   0.000000   0.000000   0.000000   0.000000   0.843622
    13  H    0.000000   0.000000   0.000000   0.000000   0.000000   0.000000
    14  H    0.000000   0.000000   0.000000   0.000000   0.000000   0.000000
    15  O    0.000000   0.000000   0.000000   0.000000   0.000000   0.000000
    16  S    0.000000   0.000000   0.000000   0.000000   0.000000   0.000000
    17  O    0.000000   0.000000   0.000000   0.000000   0.000000   0.000000
              13         14         15         16         17
     1  C    0.000000   0.000000   0.000000   0.000000   0.000000
     2  C    0.000000   0.000000   0.000000   0.000000   0.000000
     3  C    0.000000   0.000000   0.000000   0.000000   0.000000
     4  C    0.000000   0.000000   0.000000   0.000000   0.000000
     5  C    0.000000   0.000000   0.000000   0.000000   0.000000
     6  C    0.000000   0.000000   0.000000   0.000000   0.000000
     7  H    0.000000   0.000000   0.000000   0.000000   0.000000
     8  H    0.000000   0.000000   0.000000   0.000000   0.000000
     9  H    0.000000   0.000000   0.000000   0.000000   0.000000
    10  C    0.000000   0.000000   0.000000   0.000000   0.000000
    11  C    0.000000   0.000000   0.000000   0.000000   0.000000
    12  H    0.000000   0.000000   0.000000   0.000000   0.000000
    13  H    0.847635   0.000000   0.000000   0.000000   0.000000
    14  H    0.000000   0.847956   0.000000   0.000000   0.000000
    15  O    0.000000   0.000000   6.523762   0.000000   0.000000
    16  S    0.000000   0.000000   0.000000   4.924901   0.000000
    17  O    0.000000   0.000000   0.000000   0.000000   6.628868
 Mulliken charges:
               1
     1  C   -0.109673
     2  C   -0.156539
     3  C    0.022862
     4  C   -0.131605
     5  C   -0.086760
     6  C   -0.161353
     7  H    0.191112
     8  H    0.148832
     9  H    0.162100
    10  C   -0.436000
    11  C    0.173768
    12  H    0.156378
    13  H    0.152365
    14  H    0.152044
    15  O   -0.523762
    16  S    1.075099
    17  O   -0.628868
 Sum of Mulliken charges =   0.00000
 Mulliken charges with hydrogens summed into heavy atoms:
               1
     1  C    0.039159
     2  C    0.005561
     3  C    0.022862
     4  C   -0.131605
     5  C    0.069617
     6  C   -0.008988
    10  C   -0.244888
    11  C    0.325812
    15  O   -0.523762
    16  S    1.075099
    17  O   -0.628868
 APT charges:
               1
     1  C   -0.109673
     2  C   -0.156539
     3  C    0.022862
     4  C   -0.131605
     5  C   -0.086760
     6  C   -0.161353
     7  H    0.191112
     8  H    0.148832
     9  H    0.162100
    10  C   -0.436000
    11  C    0.173768
    12  H    0.156378
    13  H    0.152365
    14  H    0.152044
    15  O   -0.523762
    16  S    1.075099
    17  O   -0.628868
 Sum of APT charges =   0.00000
 APT charges with hydrogens summed into heavy atoms:
               1
     1  C    0.039159
     2  C    0.005561
     3  C    0.022862
     4  C   -0.131605
     5  C    0.069617
     6  C   -0.008988
    10  C   -0.244888
    11  C    0.325812
    15  O   -0.523762
    16  S    1.075099
    17  O   -0.628868
 Charge=              0.0000 electrons
 Dipole moment (field-independent basis, Debye):
    X=             -0.9385    Y=              0.4091    Z=             -4.5411  Tot=              4.6551
 N-N= 3.244716246528D+02 E-N=-5.047449945802D+02  KE=-1.078414163338D+02
  Exact polarizability:       0.000       0.000       0.000       0.000       0.000       0.000
 Approx polarizability:      85.396      -5.274     106.944      -4.225     -13.945      61.046
 Calling FoFJK, ICntrl=    100127 FMM=F ISym2X=0 I1Cent= 0 IOpClX= 0 NMat=1 NMatS=1 NMatT=0.
 -------------------------------------------------------------------
 Center     Atomic                   Forces (Hartrees/Bohr)
 Number     Number              X              Y              Z
 -------------------------------------------------------------------
      1        6           0.000398913   -0.000032266   -0.000122517
      2        6          -0.000281491    0.000094018   -0.000777799
      3        6          -0.003253009    0.000898955   -0.002125017
      4        6           0.000986857    0.000385975   -0.001417262
      5        6          -0.000368972    0.000122563    0.000340557
      6        6           0.000125665    0.000655615   -0.000264463
      7        1           0.002221979   -0.001145451    0.002252411
      8        1           0.000058192   -0.000130737    0.000227344
      9        1           0.000400574   -0.000275625    0.000558243
     10        6          -0.002453334   -0.006935273    0.010524086
     11        6          -0.002217375   -0.000936638    0.003198469
     12        1           0.000033642   -0.000063925    0.000190383
     13        1          -0.000016020    0.000006108    0.000140841
     14        1           0.000620270    0.000135295    0.000260498
     15        8          -0.000832537   -0.007629060    0.005225127
     16       16           0.014322716   -0.060926651    0.095168844
     17        8          -0.009746069    0.075777096   -0.113379744
 -------------------------------------------------------------------
 Cartesian Forces:  Max     0.113379744 RMS     0.025035929
 FormGI is forming the generalized inverse of G from B-inverse, IUseBI=4.

 GradGradGradGradGradGradGradGradGradGradGradGradGradGradGradGradGradGrad
 Berny optimization.
 Internal  Forces:  Max     0.136002638 RMS     0.015144249
 Search for a local minimum.
 Step number   1 out of a maximum of   96
 All quantities printed in internal units (Hartrees-Bohrs-Radians)
 Mixed Optimization -- RFO/linear search
 Second derivative matrix not updated -- analytic derivatives used.
 ITU=  0
     Eigenvalues ---    0.00588   0.01049   0.01229   0.01259   0.01335
     Eigenvalues ---    0.02038   0.02495   0.02751   0.02803   0.03055
     Eigenvalues ---    0.03273   0.03713   0.05128   0.06743   0.07333
     Eigenvalues ---    0.08908   0.09091   0.10084   0.10733   0.10984
     Eigenvalues ---    0.11451   0.12333   0.13745   0.14506   0.15113
     Eigenvalues ---    0.15577   0.16886   0.20017   0.21415   0.22349
     Eigenvalues ---    0.26157   0.26380   0.26691   0.27119   0.27716
     Eigenvalues ---    0.28074   0.30698   0.33008   0.36405   0.39263
     Eigenvalues ---    0.47702   0.54375   0.58932   0.66521   0.78688
 RFO step:  Lambda=-7.96883496D-02 EMin= 5.87972148D-03
 Linear search not attempted -- first point.
 Maximum step size (   0.050) exceeded in Quadratic search.
    -- Step size scaled by   0.090
 Iteration  1 RMS(Cart)=  0.00583477 RMS(Int)=  0.00001923
 Iteration  2 RMS(Cart)=  0.00003109 RMS(Int)=  0.00000365
 Iteration  3 RMS(Cart)=  0.00000000 RMS(Int)=  0.00000365
 Variable       Old X    -DE/DX   Delta X   Delta X   Delta X     New X
                                 (Linear)    (Quad)   (Total)
    R1        2.68486  -0.00038   0.00000  -0.00011  -0.00011   2.68476
    R2        2.62718   0.00021   0.00000   0.00009   0.00009   2.62727
    R3        2.06029   0.00012   0.00000  -0.00003  -0.00003   2.06026
    R4        2.58859  -0.00020   0.00000   0.00007   0.00007   2.58865
    R5        2.05019   0.00030   0.00000  -0.00004  -0.00004   2.05016
    R6        2.71566   0.00003   0.00000  -0.00028  -0.00028   2.71539
    R7        2.81801  -0.00030   0.00000   0.00000   0.00000   2.81801
    R8        2.58203   0.00039   0.00000   0.00010   0.00010   2.58213
    R9        2.87478   0.00022   0.00000  -0.00028  -0.00028   2.87450
   R10        2.68677  -0.00044   0.00000  -0.00013  -0.00013   2.68664
   R11        2.05293  -0.00003   0.00000  -0.00007  -0.00007   2.05286
   R12        2.05899   0.00006   0.00000  -0.00006  -0.00006   2.05893
   R13        2.04851  -0.00079   0.00000  -0.00035  -0.00035   2.04816
   R14        3.51553  -0.00631   0.00000  -0.00079  -0.00079   3.51475
   R15        2.05819  -0.00014   0.00000  -0.00014  -0.00014   2.05805
   R16        2.71467   0.00001   0.00000  -0.00042  -0.00042   2.71425
   R17        3.32534  -0.00559   0.00000  -0.00008  -0.00008   3.32526
   R18        3.15584  -0.13600   0.00000  -0.04901  -0.04901   3.10683
    A1        2.13059  -0.00006   0.00000   0.00003   0.00003   2.13062
    A2        2.06517  -0.00002   0.00000   0.00000   0.00000   2.06517
    A3        2.08743   0.00007   0.00000  -0.00003  -0.00003   2.08740
    A4        2.02082  -0.00020   0.00000  -0.00004  -0.00004   2.02078
    A5        2.11025   0.00015   0.00000   0.00006   0.00007   2.11032
    A6        2.15211   0.00005   0.00000  -0.00003  -0.00003   2.15208
    A7        2.13108   0.00064   0.00000   0.00002   0.00002   2.13111
    A8        2.52071  -0.00056   0.00000  -0.00030  -0.00030   2.52041
    A9        1.63138  -0.00008   0.00000   0.00028   0.00028   1.63166
   A10        2.13462  -0.00074   0.00000   0.00004   0.00004   2.13466
   A11        1.61048   0.00295   0.00000   0.00008   0.00008   1.61056
   A12        2.53806  -0.00221   0.00000  -0.00012  -0.00011   2.53794
   A13        2.02225   0.00023   0.00000  -0.00001  -0.00001   2.02223
   A14        2.14956  -0.00006   0.00000   0.00000   0.00000   2.14957
   A15        2.11138  -0.00018   0.00000   0.00001   0.00001   2.11139
   A16        2.12695   0.00012   0.00000  -0.00004  -0.00004   2.12691
   A17        2.08886  -0.00005   0.00000  -0.00001  -0.00001   2.08885
   A18        2.06737  -0.00007   0.00000   0.00005   0.00005   2.06742
   A19        2.10418  -0.00109   0.00000  -0.00084  -0.00083   2.10334
   A20        1.94679   0.00708   0.00000   0.00283   0.00283   1.94962
   A21        2.07006  -0.00455   0.00000  -0.00177  -0.00177   2.06829
   A22        2.09478  -0.00117   0.00000  -0.00041  -0.00041   2.09437
   A23        1.98866   0.00044   0.00000   0.00020   0.00021   1.98887
   A24        1.93579   0.00047   0.00000  -0.00005  -0.00005   1.93574
   A25        1.67999  -0.00092   0.00000   0.00008   0.00008   1.68007
   A26        1.36552   0.00495   0.00000   0.00026   0.00025   1.36577
   A27        2.10088  -0.02065   0.00000  -0.00804  -0.00805   2.09283
   A28        2.10088  -0.01079   0.00000  -0.00433  -0.00435   2.09653
    D1       -0.00095  -0.00029   0.00000  -0.00002  -0.00002  -0.00097
    D2       -3.13877  -0.00063   0.00000  -0.00031  -0.00031  -3.13909
    D3        3.14054   0.00008   0.00000   0.00013   0.00013   3.14067
    D4        0.00272  -0.00026   0.00000  -0.00017  -0.00017   0.00255
    D5        0.00402  -0.00020   0.00000  -0.00008  -0.00008   0.00394
    D6       -3.13879   0.00035   0.00000   0.00010   0.00010  -3.13869
    D7       -3.13747  -0.00057   0.00000  -0.00023  -0.00023  -3.13770
    D8        0.00290  -0.00003   0.00000  -0.00005  -0.00005   0.00285
    D9       -0.00711   0.00055   0.00000   0.00008   0.00008  -0.00704
   D10        3.14124  -0.00093   0.00000  -0.00029  -0.00029   3.14095
   D11        3.13061   0.00089   0.00000   0.00038   0.00038   3.13099
   D12       -0.00422  -0.00059   0.00000   0.00001   0.00001  -0.00421
   D13        0.01290  -0.00034   0.00000  -0.00004  -0.00004   0.01286
   D14       -3.12274  -0.00121   0.00000  -0.00022  -0.00022  -3.12296
   D15       -3.13263   0.00052   0.00000   0.00017   0.00017  -3.13246
   D16        0.01491  -0.00035   0.00000   0.00000   0.00000   0.01491
   D17        0.89495  -0.00094   0.00000  -0.00018  -0.00018   0.89477
   D18       -1.65652  -0.00193   0.00000  -0.00004  -0.00004  -1.65656
   D19       -2.24091  -0.00220   0.00000  -0.00050  -0.00050  -2.24140
   D20        1.49081  -0.00319   0.00000  -0.00035  -0.00035   1.49046
   D21       -0.00930  -0.00016   0.00000  -0.00005  -0.00005  -0.00935
   D22        3.13158  -0.00049   0.00000  -0.00016  -0.00016   3.13142
   D23        3.12182   0.00141   0.00000   0.00026   0.00025   3.12207
   D24       -0.02048   0.00108   0.00000   0.00015   0.00015  -0.02033
   D25        2.21466   0.00225   0.00000   0.00041   0.00041   2.21506
   D26       -1.71158   0.00218   0.00000   0.00009   0.00009  -1.71149
   D27       -0.91808   0.00093   0.00000   0.00015   0.00015  -0.91793
   D28        1.43887   0.00086   0.00000  -0.00017  -0.00017   1.43870
   D29        0.00121   0.00042   0.00000   0.00011   0.00011   0.00132
   D30       -3.13918  -0.00012   0.00000  -0.00007  -0.00007  -3.13925
   D31       -3.13969   0.00074   0.00000   0.00022   0.00022  -3.13947
   D32        0.00311   0.00021   0.00000   0.00003   0.00003   0.00314
   D33       -1.54876   0.00778   0.00000   0.00282   0.00281  -1.54596
   D34        0.51880  -0.00369   0.00000  -0.00272  -0.00271   0.51609
   D35        2.17016   0.00562   0.00000   0.00265   0.00264   2.17280
   D36       -2.04546  -0.00584   0.00000  -0.00289  -0.00288  -2.04834
   D37        1.51587   0.00465   0.00000   0.00284   0.00284   1.51871
   D38       -2.33979   0.00385   0.00000   0.00238   0.00238  -2.33742
   D39        0.04456  -0.00679   0.00000  -0.00244  -0.00243   0.04212
   D40       -2.02301   0.01533   0.00000   0.00712   0.00711  -2.01590
         Item               Value     Threshold  Converged?
 Maximum Force            0.136003     0.000015     NO 
 RMS     Force            0.015144     0.000010     NO 
 Maximum Displacement     0.042810     0.000060     NO 
 RMS     Displacement     0.005831     0.000040     NO 
 Predicted change in Energy=-6.917440D-03
 GradGradGradGradGradGradGradGradGradGradGradGradGradGradGradGradGradGrad

                          Input orientation:                          
 ---------------------------------------------------------------------
 Center     Atomic      Atomic             Coordinates (Angstroms)
 Number     Number       Type             X           Y           Z
 ---------------------------------------------------------------------
      1          6           0       -5.610502   -1.654545    0.253931
      2          6           0       -4.282398   -1.748858   -0.241718
      3          6           0       -3.631693   -0.558604   -0.432469
      4          6           0       -4.256254    0.705852   -0.157120
      5          6           0       -5.531068    0.800979    0.325432
      6          6           0       -6.210767   -0.431034    0.528916
      7          1           0       -1.911447   -0.203800   -1.830527
      8          1           0       -6.167301   -2.577006    0.420258
      9          1           0       -3.833228   -2.713735   -0.452101
     10          6           0       -2.353595    0.066786   -0.878688
     11          6           0       -3.025637    1.479871   -0.604642
     12          1           0       -6.013365    1.748815    0.547031
     13          1           0       -7.230913   -0.404233    0.910597
     14          1           0       -3.118749    2.264853   -1.353781
     15          8           0       -2.176291    1.899663    0.474897
     16         16           0       -1.224125    0.422085    0.555669
     17          8           0       -1.282004   -0.524380    1.898726
 ---------------------------------------------------------------------
                    Distance matrix (angstroms):
                    1          2          3          4          5
     1  C    0.000000
     2  C    1.420712   0.000000
     3  C    2.363877   1.369857   0.000000
     4  C    2.752167   2.456307   1.436921   0.000000
     5  C    2.457849   2.895256   2.455709   1.366403   0.000000
     6  C    1.390292   2.459501   2.755387   2.362896   1.421708
     7  H    4.486940   3.245448   2.244928   3.020907   4.331213
     8  H    1.090241   2.162614   3.351179   3.842216   3.438687
     9  H    2.186108   1.084897   2.164623   3.458257   3.980005
    10  C    3.853991   2.724440   1.491227   2.132880   3.476389
    11  C    4.152497   3.483655   2.133618   1.521118   2.757375
    12  H    3.439632   3.981469   3.457740   2.161259   1.086328
    13  H    2.149471   3.439417   3.844742   3.349762   2.164354
    14  H    4.914799   4.324424   3.013940   2.270770   3.283590
    15  O    4.947224   4.273281   2.997429   2.480096   3.533267
    16  S    4.862483   3.834300   2.781106   3.127683   4.329703
    17  O    4.766395   3.883711   3.310088   3.819181   4.720845
                    6          7          8          9         10
     6  C    0.000000
     7  H    4.909457   0.000000
     8  H    2.149160   5.367536   0.000000
     9  H    3.438867   3.448634   2.495516   0.000000
    10  C    4.136055   1.083841   4.818843   3.178457   0.000000
    11  C    3.883500   2.361982   5.232468   4.273383   1.588568
    12  H    2.188845   5.127497   4.330416   5.066125   4.272682
    13  H    1.089540   5.987542   2.468329   4.328396   5.216477
    14  H    4.513638   2.789106   5.990366   5.109780   2.375431
    15  O    4.659621   3.132041   5.997642   4.988808   2.285403
    16  S    5.059163   2.560874   5.783414   4.201951   1.859925
    17  O    5.116425   3.795563   5.501388   4.102245   3.035097
                   11         12         13         14         15
    11  C    0.000000
    12  H    3.213285   0.000000
    13  H    4.850789   2.500045   0.000000
    14  H    1.089071   3.501168   5.400122   0.000000
    15  O    1.436321   3.840715   5.571981   2.089415   0.000000
    16  S    2.389702   4.969618   6.073737   3.260582   1.759654
    17  O    3.650223   5.420357   6.031613   4.661787   2.950089
                   16         17
    16  S    0.000000
    17  O    1.644065   0.000000
 Symmetry turned off by external request.
 Stoichiometry    C8H6O2S
 Framework group  C1[X(C8H6O2S)]
 Deg. of freedom    45
 Full point group                 C1      NOp   1
 Rotational constants (GHZ):           1.9869840           0.7949563           0.6880531
 Standard basis: VSTO-6G (5D, 7F)
    55 basis functions,   336 primitive gaussians,    56 cartesian basis functions
    28 alpha electrons       28 beta electrons
       nuclear repulsion energy       324.7458772862 Hartrees.
 Integral buffers will be    131072 words long.
 Regular integral format.
 Two-electron integral symmetry is turned off.
 Do NDO integrals.
 One-electron integrals computed using PRISM.
 NBasis=    55 RedAO= F EigKep=  0.00D+00  NBF=    55
 NBsUse=    55 1.00D-04 EigRej=  0.00D+00 NBFU=    55
 Initial guess from the checkpoint file:  "C:\Users\al6323\OneDrive - Imperial College London\Desktop\TSR20251114\product_endo_opt+freq.chk"
 B after Tr=    -0.000011    0.002395   -0.004633
         Rot=    1.000000   -0.000169   -0.000261   -0.000112 Ang=  -0.04 deg.
 Keep J ints in memory in canonical form, NReq=1858957.
 Overlap will be assumed to be unity.
 Requested convergence on RMS density matrix=1.00D-08 within 128 cycles.
 Requested convergence on MAX density matrix=1.00D-06.
 Requested convergence on             energy=1.00D-06.
 No special actions if energy rises.
 SCF Done:  E(RPM6) =  0.349841599482E-01 A.U. after   15 cycles
            NFock= 14  Conv=0.50D-08     -V/T= 1.0003
 Calling FoFJK, ICntrl=      2127 FMM=F ISym2X=0 I1Cent= 0 IOpClX= 0 NMat=1 NMatS=1 NMatT=0.
 -------------------------------------------------------------------
 Center     Atomic                   Forces (Hartrees/Bohr)
 Number     Number              X              Y              Z
 -------------------------------------------------------------------
      1        6           0.000376966   -0.000034110   -0.000113982
      2        6          -0.000276676    0.000069604   -0.000752101
      3        6          -0.003012689    0.000857722   -0.002056161
      4        6           0.000864247    0.000417579   -0.001332269
      5        6          -0.000341219    0.000111864    0.000335094
      6        6           0.000103906    0.000614015   -0.000249404
      7        1           0.002061683   -0.001060327    0.002108434
      8        1           0.000056932   -0.000116720    0.000216810
      9        1           0.000379746   -0.000248317    0.000545852
     10        6          -0.002386737   -0.006429098    0.009848892
     11        6          -0.002101781   -0.000982760    0.003083004
     12        1           0.000037320   -0.000063331    0.000183079
     13        1          -0.000008560    0.000003118    0.000130102
     14        1           0.000625096    0.000093850    0.000215870
     15        8          -0.000923938   -0.007042948    0.004821815
     16       16           0.013136640   -0.057260658    0.088864565
     17        8          -0.008590935    0.071070515   -0.105849600
 -------------------------------------------------------------------
 Cartesian Forces:  Max     0.105849600 RMS     0.023405618

 GradGradGradGradGradGradGradGradGradGradGradGradGradGradGradGradGradGrad
 Berny optimization.
 Using GEDIIS/GDIIS optimizer.
 FormGI is forming the generalized inverse of G from B-inverse, IUseBI=4.
 Internal  Forces:  Max     0.127081736 RMS     0.014155468
 Search for a local minimum.
 Step number   2 out of a maximum of   96
 All quantities printed in internal units (Hartrees-Bohrs-Radians)
 Mixed Optimization -- RFO/linear search
 Update second derivatives using D2CorX and points    1    2
 DE= -6.91D-03 DEPred=-6.92D-03 R= 9.98D-01
 TightC=F SS=  1.41D+00  RLast= 5.10D-02 DXNew= 8.4090D-02 1.5301D-01
 Trust test= 9.98D-01 RLast= 5.10D-02 DXMaxT set to 8.41D-02
 ITU=  1  0
 Use linear search instead of GDIIS.
 Linear search step of   0.100 exceeds DXMaxT=   0.084 but not scaled.
 Quartic linear search produced a step of  2.00000.
 Iteration  1 RMS(Cart)=  0.01165520 RMS(Int)=  0.00008100
 Iteration  2 RMS(Cart)=  0.00012606 RMS(Int)=  0.00002167
 Iteration  3 RMS(Cart)=  0.00000003 RMS(Int)=  0.00002167
 Variable       Old X    -DE/DX   Delta X   Delta X   Delta X     New X
                                 (Linear)    (Quad)   (Total)
    R1        2.68476  -0.00036  -0.00021   0.00000  -0.00021   2.68455
    R2        2.62727   0.00020   0.00019   0.00000   0.00019   2.62746
    R3        2.06026   0.00010  -0.00006   0.00000  -0.00006   2.06019
    R4        2.58865  -0.00018   0.00014   0.00000   0.00013   2.58879
    R5        2.05016   0.00027  -0.00007   0.00000  -0.00007   2.05009
    R6        2.71539   0.00000  -0.00055   0.00000  -0.00056   2.71483
    R7        2.81801  -0.00027   0.00001   0.00000   0.00001   2.81803
    R8        2.58213   0.00036   0.00019   0.00000   0.00019   2.58232
    R9        2.87450   0.00018  -0.00057   0.00000  -0.00057   2.87392
   R10        2.68664  -0.00041  -0.00026   0.00000  -0.00026   2.68638
   R11        2.05286  -0.00003  -0.00014   0.00000  -0.00014   2.05273
   R12        2.05893   0.00005  -0.00013   0.00000  -0.00013   2.05881
   R13        2.04816  -0.00075  -0.00070   0.00000  -0.00070   2.04746
   R14        3.51475  -0.00578  -0.00157   0.00000  -0.00156   3.51319
   R15        2.05805  -0.00013  -0.00029   0.00000  -0.00029   2.05776
   R16        2.71425  -0.00003  -0.00084   0.00000  -0.00085   2.71340
   R17        3.32526  -0.00509  -0.00015   0.00000  -0.00015   3.32511
   R18        3.10683  -0.12708  -0.09802   0.00000  -0.09802   3.00881
    A1        2.13062  -0.00005   0.00005   0.00000   0.00005   2.13067
    A2        2.06517  -0.00001   0.00000   0.00000   0.00000   2.06517
    A3        2.08740   0.00006  -0.00005   0.00000  -0.00005   2.08735
    A4        2.02078  -0.00019  -0.00007   0.00000  -0.00008   2.02071
    A5        2.11032   0.00014   0.00013   0.00000   0.00013   2.11045
    A6        2.15208   0.00004  -0.00005   0.00000  -0.00005   2.15203
    A7        2.13111   0.00059   0.00005   0.00000   0.00005   2.13116
    A8        2.52041  -0.00052  -0.00060   0.00000  -0.00059   2.51981
    A9        1.63166  -0.00006   0.00056   0.00000   0.00054   1.63220
   A10        2.13466  -0.00066   0.00007   0.00000   0.00008   2.13474
   A11        1.61056   0.00268   0.00016   0.00000   0.00013   1.61069
   A12        2.53794  -0.00201  -0.00023   0.00000  -0.00021   2.53773
   A13        2.02223   0.00021  -0.00003   0.00000  -0.00003   2.02220
   A14        2.14957  -0.00005   0.00000   0.00000   0.00001   2.14957
   A15        2.11139  -0.00016   0.00002   0.00000   0.00003   2.11142
   A16        2.12691   0.00011  -0.00007   0.00000  -0.00007   2.12684
   A17        2.08885  -0.00005  -0.00002   0.00000  -0.00002   2.08883
   A18        2.06742  -0.00006   0.00009   0.00000   0.00009   2.06751
   A19        2.10334  -0.00105  -0.00167   0.00000  -0.00166   2.10168
   A20        1.94962   0.00666   0.00566   0.00000   0.00565   1.95527
   A21        2.06829  -0.00428  -0.00354   0.00000  -0.00354   2.06475
   A22        2.09437  -0.00110  -0.00082   0.00000  -0.00082   2.09354
   A23        1.98887   0.00043   0.00041   0.00000   0.00043   1.98929
   A24        1.93574   0.00042  -0.00010   0.00000  -0.00010   1.93564
   A25        1.68007  -0.00083   0.00016   0.00000   0.00016   1.68023
   A26        1.36577   0.00449   0.00050   0.00000   0.00045   1.36622
   A27        2.09283  -0.01944  -0.01611   0.00000  -0.01618   2.07665
   A28        2.09653  -0.01024  -0.00870   0.00000  -0.00883   2.08770
    D1       -0.00097  -0.00027  -0.00003   0.00000  -0.00003  -0.00100
    D2       -3.13909  -0.00060  -0.00063   0.00000  -0.00063  -3.13972
    D3        3.14067   0.00008   0.00026   0.00000   0.00026   3.14094
    D4        0.00255  -0.00025  -0.00034   0.00000  -0.00034   0.00221
    D5        0.00394  -0.00018  -0.00017   0.00000  -0.00016   0.00378
    D6       -3.13869   0.00032   0.00020   0.00000   0.00020  -3.13849
    D7       -3.13770  -0.00054  -0.00046   0.00000  -0.00046  -3.13816
    D8        0.00285  -0.00003  -0.00009   0.00000  -0.00009   0.00276
    D9       -0.00704   0.00050   0.00015   0.00000   0.00015  -0.00689
   D10        3.14095  -0.00088  -0.00059   0.00000  -0.00059   3.14036
   D11        3.13099   0.00084   0.00077   0.00000   0.00076   3.13176
   D12       -0.00421  -0.00054   0.00003   0.00000   0.00003  -0.00418
   D13        0.01286  -0.00031  -0.00008   0.00000  -0.00008   0.01278
   D14       -3.12296  -0.00111  -0.00043   0.00000  -0.00043  -3.12338
   D15       -3.13246   0.00049   0.00034   0.00000   0.00035  -3.13211
   D16        0.01491  -0.00031  -0.00001   0.00000   0.00000   0.01491
   D17        0.89477  -0.00087  -0.00036   0.00000  -0.00036   0.89441
   D18       -1.65656  -0.00176  -0.00008   0.00000  -0.00007  -1.65663
   D19       -2.24140  -0.00203  -0.00099   0.00000  -0.00098  -2.24238
   D20        1.49046  -0.00293  -0.00071   0.00000  -0.00069   1.48976
   D21       -0.00935  -0.00015  -0.00011   0.00000  -0.00011  -0.00946
   D22        3.13142  -0.00046  -0.00032   0.00000  -0.00032   3.13111
   D23        3.12207   0.00130   0.00051   0.00000   0.00050   3.12258
   D24       -0.02033   0.00099   0.00030   0.00000   0.00029  -0.02004
   D25        2.21506   0.00208   0.00082   0.00000   0.00081   2.21587
   D26       -1.71149   0.00200   0.00018   0.00000   0.00018  -1.71131
   D27       -0.91793   0.00085   0.00029   0.00000   0.00029  -0.91764
   D28        1.43870   0.00077  -0.00034   0.00000  -0.00033   1.43837
   D29        0.00132   0.00039   0.00023   0.00000   0.00023   0.00155
   D30       -3.13925  -0.00011  -0.00014   0.00000  -0.00014  -3.13938
   D31       -3.13947   0.00069   0.00043   0.00000   0.00043  -3.13904
   D32        0.00314   0.00019   0.00007   0.00000   0.00007   0.00321
   D33       -1.54596   0.00727   0.00562   0.00000   0.00557  -1.54039
   D34        0.51609  -0.00353  -0.00543   0.00000  -0.00537   0.51072
   D35        2.17280   0.00530   0.00528   0.00000   0.00524   2.17804
   D36       -2.04834  -0.00551  -0.00576   0.00000  -0.00570  -2.05405
   D37        1.51871   0.00444   0.00568   0.00000   0.00566   1.52438
   D38       -2.33742   0.00368   0.00475   0.00000   0.00474  -2.33267
   D39        0.04212  -0.00635  -0.00486   0.00000  -0.00484   0.03729
   D40       -2.01590   0.01446   0.01421   0.00000   0.01416  -2.00174
         Item               Value     Threshold  Converged?
 Maximum Force            0.127082     0.000015     NO 
 RMS     Force            0.014155     0.000010     NO 
 Maximum Displacement     0.085415     0.000060     NO 
 RMS     Displacement     0.011641     0.000040     NO 
 Predicted change in Energy=-1.241020D-02
 GradGradGradGradGradGradGradGradGradGradGradGradGradGradGradGradGradGrad

                          Input orientation:                          
 ---------------------------------------------------------------------
 Center     Atomic      Atomic             Coordinates (Angstroms)
 Number     Number       Type             X           Y           Z
 ---------------------------------------------------------------------
      1          6           0       -5.611951   -1.655003    0.253294
      2          6           0       -4.282990   -1.750183   -0.239564
      3          6           0       -3.631039   -0.560257   -0.428614
      4          6           0       -4.255060    0.704313   -0.154110
      5          6           0       -5.530865    0.800351    0.325922
      6          6           0       -6.211959   -0.431062    0.527424
      7          1           0       -1.908109   -0.208998   -1.822127
      8          1           0       -6.169689   -2.577069    0.418442
      9          1           0       -3.833814   -2.715269   -0.448775
     10          6           0       -2.351064    0.063571   -0.871652
     11          6           0       -3.023098    1.477562   -0.598214
     12          1           0       -6.012686    1.748437    0.547133
     13          1           0       -7.232754   -0.403678    0.907134
     14          1           0       -3.114892    2.263291   -1.346510
     15          8           0       -2.175745    1.896055    0.482795
     16         16           0       -1.218280    0.421721    0.558305
     17          8           0       -1.295344   -0.501071    1.853526
 ---------------------------------------------------------------------
                    Distance matrix (angstroms):
                    1          2          3          4          5
     1  C    0.000000
     2  C    1.420600   0.000000
     3  C    2.363786   1.369928   0.000000
     4  C    2.752000   2.456141   1.436625   0.000000
     5  C    2.457766   2.895201   2.455589   1.366504   0.000000
     6  C    1.390392   2.459527   2.755331   2.362841   1.421573
     7  H    4.485171   3.243427   2.243602   3.020695   4.330966
     8  H    1.090207   2.162486   3.351086   3.842016   3.438550
     9  H    2.186055   1.084860   2.164625   3.458008   3.979915
    10  C    3.853880   2.724258   1.491235   2.133218   3.476804
    11  C    4.152132   3.483432   2.133322   1.520814   2.757089
    12  H    3.439525   3.981341   3.457512   2.161292   1.086256
    13  H    2.149493   3.439345   3.844618   3.349708   2.164236
    14  H    4.914032   4.324090   3.013530   2.269849   3.282400
    15  O    4.946737   4.272861   2.997001   2.479809   3.532989
    16  S    4.869309   3.840080   2.785623   3.132001   4.335407
    17  O    4.746094   3.855819   3.266059   3.774053   4.686888
                    6          7          8          9         10
     6  C    0.000000
     7  H    4.908445   0.000000
     8  H    2.149189   5.365536   0.000000
     9  H    3.438916   3.446133   2.495491   0.000000
    10  C    4.136253   1.083469   4.818633   3.177944   0.000000
    11  C    3.883136   2.363398   5.232080   4.273106   1.589267
    12  H    2.188678   5.127621   4.330267   5.065964   4.273079
    13  H    1.089473   5.986536   2.468311   4.328364   5.216637
    14  H    4.512537   2.791909   5.989652   5.109682   2.376488
    15  O    4.659237   3.132977   5.997047   4.988119   2.285446
    16  S    5.066066   2.557368   5.790402   4.206654   1.859099
    17  O    5.092794   3.737809   5.488941   4.080085   2.976569
                   11         12         13         14         15
    11  C    0.000000
    12  H    3.212916   0.000000
    13  H    4.850396   2.499953   0.000000
    14  H    1.088918   3.499738   5.398928   0.000000
    15  O    1.435870   3.840319   5.571551   2.088831   0.000000
    16  S    2.389499   4.974598   6.080861   3.258349   1.759574
    17  O    3.593209   5.387046   6.013151   4.603551   2.898314
                   16         17
    16  S    0.000000
    17  O    1.592194   0.000000
 Symmetry turned off by external request.
 Stoichiometry    C8H6O2S
 Framework group  C1[X(C8H6O2S)]
 Deg. of freedom    45
 Full point group                 C1      NOp   1
 Rotational constants (GHZ):           2.0162755           0.7963389           0.6896622
 Standard basis: VSTO-6G (5D, 7F)
    55 basis functions,   336 primitive gaussians,    56 cartesian basis functions
    28 alpha electrons       28 beta electrons
       nuclear repulsion energy       325.3026294894 Hartrees.
 Integral buffers will be    131072 words long.
 Regular integral format.
 Two-electron integral symmetry is turned off.
 Do NDO integrals.
 One-electron integrals computed using PRISM.
 NBasis=    55 RedAO= F EigKep=  0.00D+00  NBF=    55
 NBsUse=    55 1.00D-04 EigRej=  0.00D+00 NBFU=    55
 Initial guess from the checkpoint file:  "C:\Users\al6323\OneDrive - Imperial College London\Desktop\TSR20251114\product_endo_opt+freq.chk"
 B after Tr=     0.000021    0.004845   -0.009326
         Rot=    1.000000   -0.000338   -0.000530   -0.000230 Ang=  -0.08 deg.
 Keep J ints in memory in canonical form, NReq=1858957.
 Overlap will be assumed to be unity.
 Requested convergence on RMS density matrix=1.00D-08 within 128 cycles.
 Requested convergence on MAX density matrix=1.00D-06.
 Requested convergence on             energy=1.00D-06.
 No special actions if energy rises.
 SCF Done:  E(RPM6) =  0.227384343574E-01 A.U. after   15 cycles
            NFock= 14  Conv=0.86D-08     -V/T= 1.0002
 Calling FoFJK, ICntrl=      2127 FMM=F ISym2X=0 I1Cent= 0 IOpClX= 0 NMat=1 NMatS=1 NMatT=0.
 -------------------------------------------------------------------
 Center     Atomic                   Forces (Hartrees/Bohr)
 Number     Number              X              Y              Z
 -------------------------------------------------------------------
      1        6           0.000332364   -0.000036240   -0.000097061
      2        6          -0.000269785    0.000016979   -0.000698641
      3        6          -0.002517750    0.000770533   -0.001921845
      4        6           0.000607530    0.000487344   -0.001157608
      5        6          -0.000283033    0.000090849    0.000323030
      6        6           0.000058547    0.000526873   -0.000218686
      7        1           0.001731224   -0.000891167    0.001812314
      8        1           0.000054371   -0.000088458    0.000195506
      9        1           0.000336745   -0.000192604    0.000520095
     10        6          -0.002260058   -0.005389385    0.008338091
     11        6          -0.001875398   -0.001054696    0.002841668
     12        1           0.000044633   -0.000062463    0.000168269
     13        1           0.000006942   -0.000003002    0.000108349
     14        1           0.000631290    0.000012904    0.000125688
     15        8          -0.001082766   -0.005826134    0.003995817
     16       16           0.011103407   -0.047455941    0.072970341
     17        8          -0.006618262    0.059094608   -0.087305327
 -------------------------------------------------------------------
 Cartesian Forces:  Max     0.087305327 RMS     0.019325623

 GradGradGradGradGradGradGradGradGradGradGradGradGradGradGradGradGradGrad
 Berny optimization.
 Using GEDIIS/GDIIS optimizer.
 FormGI is forming the generalized inverse of G from B-inverse, IUseBI=4.
 Internal  Forces:  Max     0.104950594 RMS     0.011721596
 Search for a local minimum.
 Step number   3 out of a maximum of   96
 All quantities printed in internal units (Hartrees-Bohrs-Radians)
 Mixed Optimization -- RFO/linear search
 Update second derivatives using D2CorX and points    1    2    3
 ITU=  0  1  0
 Use linear search instead of GDIIS.
 Linear search step of   0.200 exceeds DXMaxT=   0.084 scaled by   0.841
 Quartic linear search produced a step of  1.68132.
 Iteration  1 RMS(Cart)=  0.01954756 RMS(Int)=  0.00024226
 Iteration  2 RMS(Cart)=  0.00036486 RMS(Int)=  0.00006379
 Iteration  3 RMS(Cart)=  0.00000029 RMS(Int)=  0.00006379
 Variable       Old X    -DE/DX   Delta X   Delta X   Delta X     New X
                                 (Linear)    (Quad)   (Total)
    R1        2.68455  -0.00030  -0.00035   0.00000  -0.00035   2.68420
    R2        2.62746   0.00018   0.00032   0.00000   0.00032   2.62778
    R3        2.06019   0.00008  -0.00011   0.00000  -0.00011   2.06008
    R4        2.58879  -0.00012   0.00023   0.00000   0.00022   2.58901
    R5        2.05009   0.00021  -0.00012   0.00000  -0.00012   2.04997
    R6        2.71483  -0.00003  -0.00094   0.00000  -0.00096   2.71387
    R7        2.81803  -0.00019   0.00002   0.00000   0.00004   2.81807
    R8        2.58232   0.00030   0.00032   0.00000   0.00032   2.58263
    R9        2.87392   0.00007  -0.00097   0.00000  -0.00098   2.87294
   R10        2.68638  -0.00034  -0.00043   0.00000  -0.00043   2.68596
   R11        2.05273  -0.00004  -0.00023   0.00000  -0.00023   2.05250
   R12        2.05881   0.00003  -0.00021   0.00000  -0.00021   2.05859
   R13        2.04746  -0.00066  -0.00118   0.00000  -0.00118   2.04628
   R14        3.51319  -0.00461  -0.00262   0.00000  -0.00259   3.51059
   R15        2.05776  -0.00013  -0.00049   0.00000  -0.00049   2.05727
   R16        2.71340  -0.00009  -0.00143   0.00000  -0.00146   2.71194
   R17        3.32511  -0.00406  -0.00025   0.00000  -0.00025   3.32486
   R18        3.00881  -0.10495  -0.16480   0.00000  -0.16480   2.84401
    A1        2.13067  -0.00003   0.00009   0.00000   0.00009   2.13077
    A2        2.06517  -0.00001   0.00000   0.00000   0.00000   2.06516
    A3        2.08735   0.00004  -0.00009   0.00000  -0.00009   2.08726
    A4        2.02071  -0.00016  -0.00013   0.00000  -0.00014   2.02057
    A5        2.11045   0.00013   0.00022   0.00000   0.00022   2.11068
    A6        2.15203   0.00003  -0.00009   0.00000  -0.00009   2.15194
    A7        2.13116   0.00046   0.00008   0.00000   0.00009   2.13124
    A8        2.51981  -0.00046  -0.00099   0.00000  -0.00096   2.51885
    A9        1.63220   0.00000   0.00091   0.00000   0.00088   1.63308
   A10        2.13474  -0.00051   0.00013   0.00000   0.00015   2.13489
   A11        1.61069   0.00211   0.00023   0.00000   0.00016   1.61086
   A12        2.53773  -0.00159  -0.00035   0.00000  -0.00031   2.53742
   A13        2.02220   0.00016  -0.00006   0.00000  -0.00007   2.02213
   A14        2.14957  -0.00003   0.00001   0.00000   0.00002   2.14959
   A15        2.11142  -0.00012   0.00004   0.00000   0.00005   2.11147
   A16        2.12684   0.00008  -0.00012   0.00000  -0.00012   2.12672
   A17        2.08883  -0.00004  -0.00003   0.00000  -0.00003   2.08880
   A18        2.06751  -0.00004   0.00016   0.00000   0.00015   2.06767
   A19        2.10168  -0.00097  -0.00279   0.00000  -0.00275   2.09893
   A20        1.95527   0.00579   0.00951   0.00000   0.00948   1.96475
   A21        2.06475  -0.00371  -0.00596   0.00000  -0.00596   2.05879
   A22        2.09354  -0.00095  -0.00138   0.00000  -0.00138   2.09216
   A23        1.98929   0.00046   0.00072   0.00000   0.00076   1.99006
   A24        1.93564   0.00029  -0.00017   0.00000  -0.00020   1.93544
   A25        1.68023  -0.00061   0.00027   0.00000   0.00027   1.68050
   A26        1.36622   0.00354   0.00076   0.00000   0.00062   1.36685
   A27        2.07665  -0.01679  -0.02720   0.00000  -0.02739   2.04926
   A28        2.08770  -0.00901  -0.01485   0.00000  -0.01523   2.07247
    D1       -0.00100  -0.00022  -0.00005   0.00000  -0.00005  -0.00104
    D2       -3.13972  -0.00053  -0.00106   0.00000  -0.00106  -3.14078
    D3        3.14094   0.00009   0.00044   0.00000   0.00044   3.14138
    D4        0.00221  -0.00023  -0.00057   0.00000  -0.00057   0.00164
    D5        0.00378  -0.00016  -0.00028   0.00000  -0.00027   0.00350
    D6       -3.13849   0.00028   0.00034   0.00000   0.00034  -3.13814
    D7       -3.13816  -0.00047  -0.00077   0.00000  -0.00077  -3.13893
    D8        0.00276  -0.00003  -0.00015   0.00000  -0.00016   0.00261
    D9       -0.00689   0.00041   0.00025   0.00000   0.00024  -0.00665
   D10        3.14036  -0.00076  -0.00099   0.00000  -0.00100   3.13936
   D11        3.13176   0.00074   0.00129   0.00000   0.00128   3.13304
   D12       -0.00418  -0.00043   0.00005   0.00000   0.00005  -0.00413
   D13        0.01278  -0.00025  -0.00013   0.00000  -0.00012   0.01266
   D14       -3.12338  -0.00092  -0.00071   0.00000  -0.00069  -3.12407
   D15       -3.13211   0.00043   0.00058   0.00000   0.00060  -3.13151
   D16        0.01491  -0.00024   0.00000   0.00000   0.00002   0.01494
   D17        0.89441  -0.00071  -0.00060   0.00000  -0.00058   0.89383
   D18       -1.65663  -0.00141  -0.00012   0.00000  -0.00009  -1.65672
   D19       -2.24238  -0.00170  -0.00165   0.00000  -0.00163  -2.24401
   D20        1.48976  -0.00241  -0.00117   0.00000  -0.00114   1.48863
   D21       -0.00946  -0.00013  -0.00018   0.00000  -0.00019  -0.00965
   D22        3.13111  -0.00039  -0.00053   0.00000  -0.00053   3.13057
   D23        3.12258   0.00107   0.00084   0.00000   0.00082   3.12340
   D24       -0.02004   0.00081   0.00050   0.00000   0.00048  -0.01956
   D25        2.21587   0.00170   0.00136   0.00000   0.00134   2.21721
   D26       -1.71131   0.00161   0.00031   0.00000   0.00031  -1.71100
   D27       -0.91764   0.00069   0.00049   0.00000   0.00048  -0.91716
   D28        1.43837   0.00060  -0.00056   0.00000  -0.00055   1.43782
   D29        0.00155   0.00033   0.00038   0.00000   0.00038   0.00193
   D30       -3.13938  -0.00010  -0.00023   0.00000  -0.00023  -3.13961
   D31       -3.13904   0.00058   0.00072   0.00000   0.00071  -3.13833
   D32        0.00321   0.00015   0.00011   0.00000   0.00011   0.00332
   D33       -1.54039   0.00623   0.00937   0.00000   0.00923  -1.53116
   D34        0.51072  -0.00317  -0.00903   0.00000  -0.00887   0.50184
   D35        2.17804   0.00461   0.00881   0.00000   0.00868   2.18672
   D36       -2.05405  -0.00479  -0.00959   0.00000  -0.00942  -2.06346
   D37        1.52438   0.00397   0.00952   0.00000   0.00947   1.53385
   D38       -2.33267   0.00332   0.00798   0.00000   0.00795  -2.32473
   D39        0.03729  -0.00541  -0.00813   0.00000  -0.00805   0.02924
   D40       -2.00174   0.01254   0.02381   0.00000   0.02365  -1.97809
         Item               Value     Threshold  Converged?
 Maximum Force            0.104951     0.000015     NO 
 RMS     Force            0.011722     0.000010     NO 
 Maximum Displacement     0.142906     0.000060     NO 
 RMS     Displacement     0.019505     0.000040     NO 
 Predicted change in Energy=-1.535104D-02
 GradGradGradGradGradGradGradGradGradGradGradGradGradGradGradGradGradGrad

                          Input orientation:                          
 ---------------------------------------------------------------------
 Center     Atomic      Atomic             Coordinates (Angstroms)
 Number     Number       Type             X           Y           Z
 ---------------------------------------------------------------------
      1          6           0       -5.614617   -1.655769    0.252048
      2          6           0       -4.284206   -1.752447   -0.236052
      3          6           0       -3.630110   -0.563095   -0.422137
      4          6           0       -4.253181    0.701670   -0.149031
      5          6           0       -5.530655    0.799295    0.326698
      6          6           0       -6.214147   -0.431085    0.524772
      7          1           0       -1.902597   -0.217688   -1.807873
      8          1           0       -6.173978   -2.577150    0.415134
      9          1           0       -3.835058   -2.717897   -0.443313
     10          6           0       -2.346960    0.058119   -0.859703
     11          6           0       -3.018891    1.473503   -0.587316
     12          1           0       -6.011642    1.747813    0.547273
     13          1           0       -7.236042   -0.402692    0.901110
     14          1           0       -3.108358    2.260490   -1.334197
     15          8           0       -2.174871    1.889738    0.496141
     16         16           0       -1.208700    0.420833    0.562953
     17          8           0       -1.315326   -0.460927    1.777904
 ---------------------------------------------------------------------
                    Distance matrix (angstroms):
                    1          2          3          4          5
     1  C    0.000000
     2  C    1.420416   0.000000
     3  C    2.363626   1.370047   0.000000
     4  C    2.751707   2.455856   1.436119   0.000000
     5  C    2.457633   2.895118   2.455389   1.366670   0.000000
     6  C    1.390563   2.459578   2.755233   2.362737   1.421347
     7  H    4.482236   3.240088   2.241399   3.020302   4.330526
     8  H    1.090149   2.162271   3.350926   3.841667   3.438323
     9  H    2.185971   1.084797   2.164630   3.457581   3.979774
    10  C    3.853698   2.723971   1.491256   2.133751   3.477471
    11  C    4.151466   3.482983   2.132746   1.520294   2.756617
    12  H    3.439354   3.981137   3.457130   2.161350   1.086134
    13  H    2.149536   3.439231   3.844407   3.349608   2.164040
    14  H    4.912697   4.323449   3.012758   2.268294   3.280425
    15  O    4.945913   4.272110   2.996222   2.479341   3.532573
    16  S    4.880680   3.849713   2.793160   3.139213   4.344922
    17  O    4.715908   3.812912   3.195128   3.700771   4.632835
                    6          7          8          9         10
     6  C    0.000000
     7  H    4.906753   0.000000
     8  H    2.149239   5.362230   0.000000
     9  H    3.439005   3.442016   2.495453   0.000000
    10  C    4.136571   1.082845   4.818290   3.177119   0.000000
    11  C    3.882506   2.365587   5.231374   4.272552   1.590282
    12  H    2.188403   5.127782   4.330025   5.065702   4.273703
    13  H    1.089361   5.984852   2.468283   4.328318   5.216890
    14  H    4.510683   2.796354   5.988401   5.109413   2.378089
    15  O    4.658625   3.134304   5.996041   4.986893   2.285335
    16  S    5.077570   2.551473   5.802046   4.214493   1.857726
    17  O    5.056647   3.641682   5.471932   4.046822   2.879349
                   11         12         13         14         15
    11  C    0.000000
    12  H    3.212334   0.000000
    13  H    4.849731   2.499806   0.000000
    14  H    1.088661   3.497402   5.396936   0.000000
    15  O    1.435097   3.839736   5.570880   2.087820   0.000000
    16  S    2.389148   4.982908   6.092733   3.254568   1.759441
    17  O    3.498346   5.333701   5.985570   4.506245   2.812003
                   16         17
    16  S    0.000000
    17  O    1.504983   0.000000
 Symmetry turned off by external request.
 Stoichiometry    C8H6O2S
 Framework group  C1[X(C8H6O2S)]
 Deg. of freedom    45
 Full point group                 C1      NOp   1
 Rotational constants (GHZ):           2.0661672           0.7985093           0.6919880
 Standard basis: VSTO-6G (5D, 7F)
    55 basis functions,   336 primitive gaussians,    56 cartesian basis functions
    28 alpha electrons       28 beta electrons
       nuclear repulsion energy       326.2638813768 Hartrees.
 Integral buffers will be    131072 words long.
 Regular integral format.
 Two-electron integral symmetry is turned off.
 Do NDO integrals.
 One-electron integrals computed using PRISM.
 NBasis=    55 RedAO= F EigKep=  0.00D+00  NBF=    55
 NBsUse=    55 1.00D-04 EigRej=  0.00D+00 NBFU=    55
 Initial guess from the checkpoint file:  "C:\Users\al6323\OneDrive - Imperial College London\Desktop\TSR20251114\product_endo_opt+freq.chk"
 B after Tr=     0.000170    0.008308   -0.015855
         Rot=    0.999999   -0.000568   -0.000913   -0.000401 Ang=  -0.13 deg.
 Keep J ints in memory in canonical form, NReq=1858957.
 Overlap will be assumed to be unity.
 Requested convergence on RMS density matrix=1.00D-08 within 128 cycles.
 Requested convergence on MAX density matrix=1.00D-06.
 Requested convergence on             energy=1.00D-06.
 No special actions if energy rises.
 SCF Done:  E(RPM6) =  0.839439038640E-02 A.U. after   16 cycles
            NFock= 15  Conv=0.38D-08     -V/T= 1.0001
 Calling FoFJK, ICntrl=      2127 FMM=F ISym2X=0 I1Cent= 0 IOpClX= 0 NMat=1 NMatS=1 NMatT=0.
 -------------------------------------------------------------------
 Center     Atomic                   Forces (Hartrees/Bohr)
 Number     Number              X              Y              Z
 -------------------------------------------------------------------
      1        6           0.000255333   -0.000034062   -0.000069585
      2        6          -0.000266445   -0.000083585   -0.000603929
      3        6          -0.001641281    0.000612746   -0.001706805
      4        6           0.000142603    0.000625835   -0.000851511
      5        6          -0.000176391    0.000057924    0.000298882
      6        6          -0.000022715    0.000368351   -0.000165745
      7        1           0.001149181   -0.000613336    0.001289996
      8        1           0.000049840   -0.000041094    0.000159480
      9        1           0.000261537   -0.000096949    0.000474484
     10        6          -0.002104804   -0.003553293    0.005261686
     11        6          -0.001518731   -0.001115898    0.002405762
     12        1           0.000056524   -0.000061461    0.000143129
     13        1           0.000034210   -0.000013649    0.000071498
     14        1           0.000632411   -0.000117320   -0.000030957
     15        8          -0.001252635   -0.003668239    0.002531577
     16       16           0.009369897   -0.021798908    0.034414739
     17        8          -0.004968536    0.029532940   -0.043622703
 -------------------------------------------------------------------
 Cartesian Forces:  Max     0.043622703 RMS     0.009532977

 GradGradGradGradGradGradGradGradGradGradGradGradGradGradGradGradGradGrad
 Berny optimization.
 Using GEDIIS/GDIIS optimizer.
 FormGI is forming the generalized inverse of G from B-inverse, IUseBI=4.
 Internal  Forces:  Max     0.052167106 RMS     0.006006542
 Search for a local minimum.
 Step number   4 out of a maximum of   96
 All quantities printed in internal units (Hartrees-Bohrs-Radians)
 Mixed Optimization -- RFO/linear search
 Update second derivatives using D2CorX and points    1    2    3    4
 ITU=  0  0  1  0
 Use linear search instead of GDIIS.
 Linear search step of   0.127 exceeds DXMaxT=   0.084 but not scaled.
 Quartic linear search produced a step of  0.75735.
 Iteration  1 RMS(Cart)=  0.01474197 RMS(Int)=  0.00015002
 Iteration  2 RMS(Cart)=  0.00021498 RMS(Int)=  0.00005180
 Iteration  3 RMS(Cart)=  0.00000011 RMS(Int)=  0.00005180
 Variable       Old X    -DE/DX   Delta X   Delta X   Delta X     New X
                                 (Linear)    (Quad)   (Total)
    R1        2.68420  -0.00020  -0.00026   0.00000  -0.00026   2.68394
    R2        2.62778   0.00014   0.00025   0.00000   0.00025   2.62803
    R3        2.06008   0.00003  -0.00008   0.00000  -0.00008   2.06000
    R4        2.58901  -0.00002   0.00017   0.00000   0.00017   2.58918
    R5        2.04997   0.00010  -0.00009   0.00000  -0.00009   2.04988
    R6        2.71387   0.00000  -0.00072   0.00000  -0.00074   2.71313
    R7        2.81807  -0.00004   0.00003   0.00000   0.00004   2.81811
    R8        2.58263   0.00019   0.00024   0.00000   0.00023   2.58287
    R9        2.87294  -0.00013  -0.00074   0.00000  -0.00076   2.87218
   R10        2.68596  -0.00023  -0.00032   0.00000  -0.00032   2.68564
   R11        2.05250  -0.00005  -0.00017   0.00000  -0.00017   2.05232
   R12        2.05859  -0.00001  -0.00016   0.00000  -0.00016   2.05843
   R13        2.04628  -0.00050  -0.00089   0.00000  -0.00089   2.04539
   R14        3.51059  -0.00223  -0.00196   0.00000  -0.00194   3.50865
   R15        2.05727  -0.00012  -0.00037   0.00000  -0.00037   2.05690
   R16        2.71194  -0.00012  -0.00111   0.00000  -0.00113   2.71081
   R17        3.32486  -0.00226  -0.00019   0.00000  -0.00019   3.32467
   R18        2.84401  -0.05217  -0.12481   0.00000  -0.12481   2.71919
    A1        2.13077   0.00001   0.00007   0.00000   0.00007   2.13084
    A2        2.06516  -0.00002   0.00000   0.00000   0.00000   2.06516
    A3        2.08726   0.00000  -0.00007   0.00000  -0.00007   2.08719
    A4        2.02057  -0.00010  -0.00010   0.00000  -0.00011   2.02046
    A5        2.11068   0.00009   0.00017   0.00000   0.00017   2.11085
    A6        2.15194   0.00001  -0.00007   0.00000  -0.00006   2.15188
    A7        2.13124   0.00023   0.00006   0.00000   0.00007   2.13131
    A8        2.51885  -0.00037  -0.00073   0.00000  -0.00070   2.51815
    A9        1.63308   0.00014   0.00066   0.00000   0.00064   1.63372
   A10        2.13489  -0.00025   0.00011   0.00000   0.00013   2.13501
   A11        1.61086   0.00112   0.00012   0.00000   0.00007   1.61092
   A12        2.53742  -0.00086  -0.00023   0.00000  -0.00019   2.53723
   A13        2.02213   0.00007  -0.00005   0.00000  -0.00006   2.02207
   A14        2.14959  -0.00001   0.00001   0.00000   0.00002   2.14961
   A15        2.11147  -0.00006   0.00004   0.00000   0.00004   2.11151
   A16        2.12672   0.00004  -0.00009   0.00000  -0.00009   2.12662
   A17        2.08880  -0.00003  -0.00002   0.00000  -0.00002   2.08878
   A18        2.06767  -0.00001   0.00012   0.00000   0.00012   2.06778
   A19        2.09893  -0.00081  -0.00209   0.00000  -0.00206   2.09687
   A20        1.96475   0.00424   0.00718   0.00000   0.00716   1.97190
   A21        2.05879  -0.00269  -0.00451   0.00000  -0.00452   2.05427
   A22        2.09216  -0.00070  -0.00104   0.00000  -0.00104   2.09112
   A23        1.99006   0.00060   0.00058   0.00000   0.00061   1.99067
   A24        1.93544   0.00001  -0.00015   0.00000  -0.00017   1.93527
   A25        1.68050  -0.00013   0.00020   0.00000   0.00020   1.68070
[...]
   yx        -0.403725D+01     -0.598259D+00     -0.665653D+00
   yy         0.105925D+03      0.156965D+02      0.174647D+02
   zx         0.855356D+01      0.126751D+01      0.141029D+01
   zy        -0.388618D+01     -0.575872D+00     -0.640745D+00
   zz         0.578540D+02      0.857309D+01      0.953884D+01

 First dipole hyperpolarizability, Beta (dipole orientation).
 ||, _|_  parallel and perpendicular components, (z) with respect to z axis,
 vector components x,y,z.  Values do not include the 1/n! factor of 1/2.
 (esu units = statvolt**-1 cm**4 , SI units = C**3 m**3 J**-2)
 Beta(0;0,0):
               (au)            (10**-30 esu)      (10**-50 SI)
   || (z)     0.176756D+02      0.152704D+00      0.566744D-01
   _|_(z)     0.589187D+01      0.509012D-01      0.188915D-01
   x          0.553855D+03      0.478488D+01      0.177586D+01
   y         -0.206093D+02     -0.178049D+00     -0.660809D-01
   z          0.883781D+02      0.763518D+00      0.283372D+00
   ||         0.112248D+03      0.969736D+00      0.359908D+00
   xxx        0.756056D+02      0.653174D+00      0.242419D+00
   xxy        0.160190D+02      0.138392D+00      0.513627D-01
   yxy        0.785204D+02      0.678355D+00      0.251765D+00
   yyy        0.465862D+02      0.402469D+00      0.149372D+00
   xxz       -0.108209D+03     -0.934845D+00     -0.346958D+00
   yxz        0.340342D+02      0.294029D+00      0.109126D+00
   yyz        0.723056D+02      0.624664D+00      0.231838D+00
   zxz        0.304924D+02      0.263431D+00      0.977696D-01
   zyz       -0.694750D+02     -0.600210D+00     -0.222762D+00
   zzz        0.653632D+02      0.564687D+00      0.209578D+00

 ----------------------------------------------------------------------
 Unable to Open any file for archive entry.
 1|1|UNPC-SKCH-134-020|Freq|RPM6|ZDO|C8H6O2S1|AL6323|14-Nov-2025|0||#N 
 Geom=AllCheck Guess=TCheck SCRF=Check GenChk RPM6/ZDO Freq||Title Card
  Required||0,1|C,-5.6146092979,-1.6568638373,0.2485561379|C,-4.2840059
 339,-1.7544146295,-0.23749344|C,-3.6304491843,-0.5645304296,-0.4244371
 189|C,-4.2523328842,0.6999777314,-0.1485345121|C,-5.5284710204,0.79791
 97748,0.3318227498|C,-6.2138281546,-0.4318765663,0.5231716861|H,-1.894
 0800997,-0.2305008814,-1.794460884|H,-6.1735096169,-2.5779927062,0.414
 4060183|H,-3.8290057992,-2.7200515439,-0.4301564717|C,-2.340388613,0.0
 521187369,-0.8498269928|C,-3.0146927173,1.4673294236,-0.5733342624|H,-
 6.0049650407,1.7457865282,0.5633839674|H,-7.2348736897,-0.4043357237,0
 .9013294149|H,-3.0913518829,2.2551187601,-1.3211844697|O,-2.1700322957
 ,1.881321539,0.5111843096|S,-1.1793199889,0.4316601336,0.5497066719|O,
 -1.4034228508,-0.4179558597,1.700276446||Version=EM64W-G16RevC.01|HF=0
 .0038272|RMSD=9.032e-010|RMSF=7.322e-008|ZeroPoint=0.1152971|Thermal=0
 .1238594|ETot=0.1276866|HTot=0.1286308|GTot=0.0850716|Dipole=0.1899232
 ,-0.022852,-1.4617067|DipoleDeriv=-0.0647332,-0.1048392,-0.0251474,-0.
 0611801,-0.1368676,0.0209716,-0.0083797,0.030467,-0.0843218,-0.2819775
 ,0.0434555,0.0229216,-0.0293874,-0.2455541,-0.0111484,0.0280323,-0.047
 2094,-0.2024781,0.3220052,0.1120295,0.0370265,-0.029123,-0.0269402,0.0
 422519,-0.1097335,-0.0693193,0.0406141,-0.4180301,-0.1354754,-0.020392
 2,0.1086629,-0.0968136,-0.0330822,0.1254192,0.0975614,-0.1873662,-0.02
 5855,0.1229449,0.0180859,0.0042883,-0.0969769,-0.0052815,-0.0180853,-0
 .0317899,-0.064084,-0.3263365,0.0053505,0.0126909,0.0036962,-0.2741023
 ,-0.0270493,0.0388557,-0.0051946,-0.2021733,0.1490114,-0.0200793,-0.09
 71629,-0.0065048,0.1331943,0.0609539,-0.0670818,0.0436939,0.3197051,0.
 1472448,0.1006037,0.0086847,0.1082859,0.2423336,-0.0206985,-0.000665,-
 0.0323078,0.1375732,0.118054,-0.0923674,-0.0030099,-0.0467546,0.29429,
 0.0485873,0.0105902,0.0410344,0.1605065,-0.6675689,-0.0919428,-0.07762
 86,-0.0183609,-0.4502359,-0.0813698,0.0716899,-0.0211068,-0.6646318,0.
 8567527,0.2120374,0.2104951,0.3330647,0.1398608,0.0709411,0.2887911,0.
 0631705,0.3671669,0.1517442,-0.0863444,-0.0001141,-0.1259991,0.2494879
 ,0.0365311,-0.012962,0.0389301,0.146734,0.3130212,-0.0072173,-0.038501
 ,-0.0089658,0.0819679,-0.0017916,-0.062076,-0.0020579,0.1697085,-0.001
 0535,-0.0335092,0.0003981,-0.024352,0.1864724,-0.1128531,-0.0239469,-0
 .1192846,0.148515,-1.1119921,0.2953484,-0.1556064,0.0599092,-0.7514279
 ,0.1159898,-0.3927949,0.0626053,-0.6366857,1.4073359,-0.2070074,-0.113
 6894,-0.7830932,1.2723609,-0.3672541,0.6887513,-0.3160219,1.3836487,-0
 .5676547,-0.1129347,0.2210014,0.5158444,-0.5211769,0.2642658,-0.556398
 2,0.266755,-0.8324572|Polar=111.6367839,4.4736597,105.8011292,-1.64034
 79,-4.095817,56.6543169|HyperPolar=34.1777184,-21.5587269,87.8522811,-
 49.6419376,103.1965044,21.4705677,-58.4874563,64.8519995,77.7980795,-5
 0.2406971|PG=C01 [X(C8H6O2S1)]|NImag=0||0.55220547,-0.02506027,0.63631
 866,-0.14923773,0.03088812,0.20056934,-0.25092867,-0.04338837,0.065139
 34,0.53778873,0.07400374,-0.09430276,-0.02783287,0.04086620,0.69922524
 ,0.07052216,0.01480980,-0.08981155,-0.14132543,0.00710112,0.18959714,-
 0.04855167,-0.02619230,0.01862664,-0.15055113,-0.18307287,0.02459840,0
 .55697581,-0.12457713,0.05524987,0.04740931,-0.06487811,-0.33669243,0.
 01169920,0.17998989,0.76724495,0.01438386,0.01108330,0.00048430,0.0291
 6506,0.05420501,-0.06734962,-0.13923987,-0.03303925,0.19049898,-0.0695
 4051,0.04016197,0.02504251,0.07713504,0.03866904,-0.02369874,-0.092311
 94,0.03634039,0.01030795,0.79642140,0.04136857,-0.03879581,-0.01688160
 ,-0.05110360,-0.08368223,0.01535258,0.11473432,-0.21152092,-0.04738752
 ,-0.01260099,0.47941724,0.02659926,-0.01622782,-0.01438404,-0.02823181
 ,-0.01861337,0.01562501,0.01341194,-0.01819347,-0.06996706,-0.23446482
 ,0.01909865,0.23042074,0.08238262,-0.05243080,-0.03032752,-0.07324440,
 -0.03723040,0.02442043,-0.03131268,0.11991527,0.01894140,-0.36735736,-
 0.02845738,0.11309254,0.63624953,0.04100527,-0.08823845,-0.01889068,-0
 .04037237,-0.02686449,0.01315956,0.02661813,0.04024118,-0.00802470,0.0
 8884620,-0.09471070,-0.03574966,-0.02984848,0.58527541,-0.02693747,0.0
 1481823,0.01560284,0.02466083,0.01303430,-0.00987524,0.01465005,-0.042
 87063,-0.00104587,0.11871717,0.00755046,-0.10236266,-0.18521127,0.0346
 9066,0.21142450,-0.13876945,0.14981715,0.03360590,-0.02980750,0.030758
 40,0.01384459,-0.00862886,-0.00365030,0.00156395,-0.04825564,-0.026060
 58,0.01829444,-0.12928966,-0.13372780,0.01700777,0.54321477,0.03398297
 ,-0.28626021,-0.02287970,0.12334303,0.04104572,-0.04310244,-0.00174439
 ,-0.10936246,-0.00361102,-0.12298001,0.05390218,0.04822133,-0.01586063
 ,-0.23217972,-0.00306696,-0.01808681,0.64289234,0.02818874,-0.06452394
 ,-0.07936700,0.01859864,-0.00973195,-0.00153946,0.00114434,-0.00359334
 ,-0.00519262,0.01454549,0.01202790,0.00138356,0.02213448,0.04040165,-0
 .07180586,-0.14732832,0.03018159,0.19845174,-0.00058201,0.00015400,-0.
 00044179,0.00031765,0.00075301,0.00008439,-0.01743949,-0.00197945,0.02
 259898,-0.00225735,0.00038669,0.00055281,-0.00023366,0.00016484,-0.000
 47546,0.00009170,-0.00021441,-0.00005037,0.08133066,-0.00018706,-0.000
 03485,-0.00032448,-0.00022589,-0.00010954,-0.00011679,-0.00464467,0.00
 566402,0.00974945,-0.00016861,-0.00007566,-0.00026561,0.00034644,0.000
 25561,0.00002771,-0.00007143,-0.00019198,-0.00001723,-0.02340428,0.052
 67411,-0.00012930,-0.00014151,0.00012442,-0.00022327,0.00020899,-0.000
 04492,0.01405818,0.00010506,-0.00920089,0.00009605,-0.00007113,-0.0001
 7163,-0.00004299,-0.00002868,-0.00000679,-0.00008748,-0.00009597,0.000
 00156,-0.08659867,0.05519924,0.21389937,-0.08308785,-0.08015098,0.0117
 9534,-0.02878556,-0.02306537,0.01161960,-0.00227012,0.00066777,0.00262
 324,0.00051388,0.00009164,-0.00019307,-0.00012842,0.00105435,0.0023246
 3,0.00677709,0.00674730,-0.00021609,-0.00001151,0.00000512,0.00001720,
 0.10766510,-0.08003093,-0.16588749,0.02414608,-0.00961209,-0.00083416,
 0.00307450,-0.00015567,0.00003358,-0.00004449,0.00068880,0.00040374,-0
 .00040439,0.00112465,-0.00234899,-0.00072578,-0.00689511,-0.04118406,0
 .00041989,-0.00002747,0.00002447,0.00008948,0.09430769,0.20983757,0.01
 167835,0.02413195,-0.04499604,0.01226976,0.00812696,0.00164760,0.00259
 174,-0.00053140,0.00391364,-0.00004764,0.00003315,0.00026342,0.0022738
 4,-0.00076786,0.00502919,-0.00071708,-0.00451733,0.00569301,0.00002932
 ,0.00002901,0.00002020,-0.02681904,-0.02653944,0.03200475,-0.02296853,
 0.02539988,0.01096567,-0.06801654,0.06952034,0.01166501,0.00776032,-0.
 01098599,-0.00091885,0.00001408,-0.00114739,0.00219620,0.00026592,-0.0
 0019257,-0.00005679,-0.00215430,-0.00060021,0.00246777,0.00013244,-0.0
 0017050,-0.00004682,-0.00067917,0.00027818,-0.00008585,0.08641471,0.01
 193217,-0.00449630,-0.00471937,0.06963077,-0.18314548,-0.02928898,0.00
 234420,-0.04057529,-0.00252238,-0.00110378,-0.00172884,0.00013185,-0.0
 0031783,0.00026926,0.00003792,-0.00023378,0.00045151,0.00000351,-0.000
 08431,0.00008004,0.00013511,-0.00005772,0.00088072,0.00009000,-0.08275
 295,0.22835848,0.01059524,-0.00951411,0.00099689,0.01151342,-0.0293795
 5,-0.04653362,-0.00032518,0.00250560,0.00617519,0.00238140,0.00004337,
 0.00576679,-0.00013601,0.00006248,0.00007025,0.00251898,0.00005214,0.0
 0382092,0.00019234,0.00018047,0.00011752,-0.00009888,-0.00001910,-0.00
 090423,-0.02536372,0.03633515,0.03358719,0.00174439,-0.00249714,0.0016
 4339,-0.01623067,-0.01191088,0.00648699,-0.19260471,-0.08960679,0.0405
 9236,-0.08326108,0.03404415,0.04047336,-0.00043173,0.00277718,0.001971
 79,-0.00077794,-0.00009053,0.00027022,-0.06145848,0.02195560,0.0723542
 5,-0.00011829,0.00047240,-0.00008825,-0.00041604,0.00075198,-0.0005160
 5,0.45427006,0.00137792,-0.00356388,-0.00066260,-0.02545123,-0.0095366
 5,0.00894339,-0.06075929,-0.07086282,0.01641944,0.03155253,-0.00003276
 ,-0.01150052,-0.00003042,-0.00025333,0.00063688,-0.00009004,0.00193483
 ,0.00018561,0.02174586,-0.05142874,-0.04127535,-0.00049879,0.00013545,
 0.00014674,0.00043257,0.00052345,-0.00019662,0.00908626,0.33782830,0.0
 0275762,-0.00049760,0.00537973,0.00258122,0.00239319,0.00096832,0.0583
 8435,0.03407757,-0.07350642,0.03962491,-0.01248012,0.00373738,0.001285
 46,-0.00084538,0.00330501,0.00021130,0.00089630,0.00002110,0.06725320,
 -0.04056145,-0.18015308,-0.00016266,-0.00007045,-0.00027418,-0.0005122
 5,-0.00007890,-0.00171537,-0.12487666,0.07508441,0.40438428,0.00289456
 ,-0.00017598,-0.00076547,-0.00213776,-0.00165399,0.00140972,0.00719232
 ,-0.03267624,0.00512773,-0.14700556,-0.05785153,0.03850543,-0.02488409
 ,-0.01437710,0.00977291,-0.00151686,0.00453177,0.00232171,-0.00308402,
 0.00992405,0.00438167,-0.00058406,-0.00072854,-0.00007301,0.00030302,-
 0.00025202,-0.00020367,-0.05352841,0.03714954,0.01046319,0.40231583,0.
 00082078,0.00000862,-0.00033304,-0.00030160,-0.00322785,-0.00088856,-0
 .03254789,-0.09560306,0.00832800,-0.08364784,-0.07910393,0.03425555,-0
 .00320862,0.00218482,0.00136487,0.00029717,0.00132553,-0.00082520,0.00
 581264,-0.00605383,-0.00654324,-0.00012796,-0.00031001,0.00018246,0.00
 001813,-0.00046973,0.00016332,0.04508610,-0.11373921,-0.01510766,0.045
 28316,0.49686409,0.00020247,-0.00033453,-0.00011176,0.00089347,0.00036
 544,0.00366394,0.00318018,0.00612238,0.01556493,0.04595449,0.03158242,
 -0.07475195,0.00646271,0.00534605,-0.00138090,0.00343663,-0.00017028,0
 .00520750,0.00791893,-0.01646943,-0.00270251,-0.00027164,-0.00002317,-
 0.00065346,0.00003998,-0.00013201,-0.00031499,0.00055797,0.00926312,-0
 .05085365,0.05404061,-0.09953796,0.39372788,-0.00054633,-0.00140118,0.
 00195834,0.00023331,-0.00002336,-0.00012814,-0.00127763,-0.00034272,0.
 00305123,-0.02403649,0.02637575,0.01263812,-0.07164856,0.07189846,0.01
 496572,0.00651004,-0.01058525,-0.00101689,-0.00001515,-0.00001412,0.00
 004648,0.00015799,-0.00017185,-0.00020387,-0.00014888,0.00012145,-0.00
 032477,-0.00036340,0.00001217,-0.00014579,-0.00026442,0.00014786,-0.00
 060447,0.09088772,-0.00165918,-0.00184472,0.00024099,-0.00026567,0.000
 44104,0.00019132,0.00017321,0.00009954,-0.00056338,0.01193919,-0.00391
 344,-0.00479938,0.07161783,-0.17625122,-0.03424074,0.00338580,-0.03768
 493,-0.00355286,0.00002068,-0.00001791,-0.00007291,0.00012217,-0.00041
 304,-0.00003367,0.00010879,-0.00018200,0.00000554,-0.00051401,-0.00011
 733,0.00013462,0.00108848,0.00072481,0.00024621,-0.08530065,0.21955001
 ,0.00185807,0.00026850,0.00408845,-0.00006370,0.00002189,0.00005171,0.
 00303437,-0.00011569,0.00575051,0.01204027,-0.01041202,0.00111929,0.01
 487676,-0.03431176,-0.05008516,-0.00024521,0.00160389,0.00565923,0.000
 06959,0.00004492,0.00000569,-0.00019853,0.00005278,-0.00031662,-0.0003
 1753,-0.00001156,-0.00092616,-0.00015741,-0.00011057,-0.00065022,-0.00
 018612,0.00028478,-0.00114875,-0.02990336,0.04258133,0.03737536,-0.022
 00965,0.01452105,0.01060191,0.00049928,0.00110946,0.00207660,0.0001633
 1,0.00010947,-0.00002083,0.00009472,-0.00171979,0.00164402,-0.02362728
 ,-0.01364611,0.00999717,-0.19759403,0.00442963,0.05812649,-0.00001177,
 0.00002383,0.00007277,0.00034313,0.00055985,-0.00068225,-0.00022822,0.
 00013063,-0.00002347,0.00019708,0.00013135,-0.00034855,-0.00025693,-0.
 00005262,-0.00013473,0.00031143,-0.00044333,-0.00047037,0.24216904,0.0
 2770465,-0.00841133,-0.01085856,0.00093570,-0.00258389,-0.00069504,-0.
 00014454,0.00006551,0.00004579,-0.00116091,-0.00253898,-0.00000557,-0.
 02687588,-0.00686319,0.00937525,0.00453650,-0.03369984,-0.00136602,-0.
 00000951,0.00000266,-0.00000702,0.00085838,-0.00041886,-0.00026058,0.0
 0041509,0.00005758,-0.00013246,0.00001953,0.00008105,0.00007214,-0.000
 26094,0.00006823,0.00021313,-0.00076540,-0.00027074,0.00030824,-0.0051
 3800,0.05457327,0.01130947,-0.00593924,0.00092874,0.00196134,-0.000790
 92,0.00499460,0.00015735,-0.00009079,0.00022831,0.00148270,0.00039861,
 0.00406621,0.00957264,0.00454209,0.00234888,0.05801415,-0.00145444,-0.
 06241850,0.00010880,-0.00001237,-0.00000684,-0.00067076,-0.00014766,-0
 .00136362,0.00001139,-0.00003171,-0.00029414,-0.00047184,-0.00015268,-
 0.00071906,0.00007853,0.00012254,-0.00003982,-0.00049568,0.00019781,-0
 .00072457,-0.08098019,0.00337250,0.05306016,-0.00034366,0.00011859,0.0
 0011450,0.00046730,-0.00001948,-0.00044855,-0.00171447,-0.00123438,0.0
 0008416,-0.00396282,-0.01678415,0.01534976,0.00061980,-0.00057439,-0.0
 0018872,-0.00047277,-0.00032894,-0.00049469,0.00005594,0.00026340,-0.0
 0026722,0.00006814,0.00006023,0.00004411,-0.00006440,0.00000254,0.0000
 8725,0.00008173,0.01000622,-0.00574132,-0.03162659,0.00897623,-0.00242
 371,0.00011696,-0.00020890,0.00015604,0.00003673,-0.00006349,0.0000097
 8,0.04426246,0.00022786,0.00000289,-0.00007254,-0.00035811,-0.00019898
 ,-0.00034005,-0.00021530,-0.00107004,0.00018896,-0.00859352,-0.0105130
 8,0.01128906,0.00023526,-0.00021964,0.00017941,-0.00007175,0.00010637,
 -0.00027930,0.00011120,-0.00016978,-0.00007784,-0.00001406,-0.00005810
 ,0.00006580,0.00002853,-0.00003310,-0.00000939,0.00530669,-0.01882619,
 0.01064908,0.01207983,-0.13227630,0.09126874,0.00002716,0.00016191,0.0
 0010815,-0.00004071,0.00001307,0.00001876,-0.00852854,0.15739366,-0.00
 007289,-0.00012272,-0.00001467,-0.00029367,0.00004158,-0.00001021,0.00
 107795,0.00065812,-0.00029368,0.00488815,0.01302553,-0.00577286,-0.000
 11833,0.00014546,0.00003519,0.00008269,-0.00002833,0.00008070,-0.00008
 940,-0.00015681,0.00058285,0.00004679,0.00007625,0.00000457,0.00000929
 ,0.00006727,0.00001911,0.00123331,-0.00214310,0.00476042,-0.00391522,0
 .08791470,-0.11627836,0.00006457,-0.00010113,0.00001521,0.00005456,0.0
 0000411,-0.00001265,0.01595515,-0.11256092,0.14867739,-0.00225750,0.00
 036427,0.00057437,0.00298209,0.00054419,0.00009490,-0.00406740,-0.0020
 5716,0.00290515,-0.03459226,-0.02176136,-0.01882525,0.00251562,0.00023
 213,-0.00182356,0.00058432,-0.00278581,0.00145299,-0.00026786,-0.00186
 566,-0.00017992,0.00028334,0.00049859,-0.00027856,-0.00051228,0.000217
 19,-0.00011099,0.01944193,-0.00506071,-0.00466149,-0.09183871,-0.02112
 041,-0.08166827,0.00033512,-0.00034294,-0.00048387,0.00009064,-0.00009
 233,-0.00008044,-0.00687651,-0.00115170,-0.01719477,0.17759383,0.00107
 642,-0.00049278,-0.00034707,-0.00135646,-0.00084932,0.00095547,0.00156
 146,-0.00093319,-0.00075445,-0.01310985,-0.00425658,-0.00746866,-0.001
 03245,-0.00063414,0.00031212,-0.00034667,0.00130454,0.00055740,-0.0022
 6894,-0.00128381,-0.00089792,-0.00002595,0.00004825,-0.00007357,0.0000
 4275,0.00018240,0.00012885,-0.00630928,-0.05059980,-0.05212673,-0.0478
 2312,-0.07316766,-0.06293766,-0.00008706,-0.00040372,-0.00016690,0.000
 24065,-0.00002207,-0.00008265,0.00832008,0.00783337,0.01439882,-0.0016
 2116,0.24414355,-0.00111093,0.00028418,0.00034425,0.00102932,0.0002426
 5,0.00013946,-0.00202036,-0.00104887,0.00126723,-0.01578640,-0.0106985
 8,0.00595273,0.00223926,-0.00005367,-0.00128902,-0.00042503,-0.0014130
 5,0.00026886,-0.00004824,-0.00158009,0.00037975,0.00009655,0.00022924,
 -0.00012948,-0.00026407,0.00018219,-0.00008460,-0.00353773,-0.04592675
 ,-0.02885193,-0.08358064,-0.03728868,-0.15855323,0.00005395,-0.0003453
 4,-0.00036403,0.00012132,-0.00009244,-0.00012219,-0.02053138,0.0000787
 2,-0.02891239,0.12422841,0.10213116,0.22694956,0.00044365,0.00078295,0
 .00093671,0.00013010,0.00088416,-0.00073998,-0.02051812,-0.00420159,-0
 .01271828,-0.00209025,0.00073013,-0.00027876,0.00037711,-0.00005831,0.
 00066994,0.00007451,0.00010211,0.00005121,0.00491501,-0.00171542,-0.00
 188327,-0.00025013,-0.00043750,0.00000132,0.00019982,-0.00040025,-0.00
 053748,-0.07674086,-0.02660748,-0.03628685,-0.05258102,0.03495765,-0.0
 3579756,-0.00035540,0.00038446,-0.00013912,-0.00027920,0.00003210,-0.0
 0009686,-0.00057571,0.00067485,-0.00187360,-0.07236142,0.05720527,0.00
 367911,0.26457323,-0.00214139,0.00070692,0.00136586,0.00271139,0.00094
 734,-0.00057361,-0.01439667,-0.00115904,-0.00575247,-0.00638853,-0.002
 49830,0.00106317,0.00252934,0.00028124,-0.00116397,0.00004583,-0.00296
 144,0.00022713,-0.00200272,0.00153240,-0.00525854,0.00014045,0.0003139
 4,-0.00020712,-0.00098235,0.00032217,-0.00050284,-0.01368779,-0.023881
 17,-0.00454090,0.04978762,0.00324920,0.03510553,0.00018421,0.00004338,
 -0.00018501,-0.00001342,-0.00006316,-0.00007786,-0.00036965,-0.0029366
 6,-0.00131194,0.05129022,-0.10817370,-0.01544867,-0.01982598,0.3004156
 3,-0.00058104,0.00103772,0.00009996,0.00273529,0.00118902,-0.00170117,
 -0.01620008,-0.00369829,0.00350256,0.00018490,-0.00193698,-0.00146443,
 0.00026268,0.00046628,0.00003360,0.00090657,-0.00040151,-0.00059990,-0
 .00817420,-0.00646919,-0.02280094,-0.00000197,-0.00040778,0.00019730,0
 .00039144,-0.00071004,0.00026864,-0.03468236,-0.01822303,-0.06404291,-
 0.03892966,0.02657592,-0.01145776,-0.00006494,0.00041931,0.00033328,-0
 .00042783,0.00005096,0.00031761,-0.00140851,0.00028106,-0.00327481,0.0
 0052469,0.00135677,-0.01170048,0.03656496,-0.21031169,0.41085633,-0.00
 009027,-0.00001935,-0.00023055,0.00015417,-0.00012832,-0.00048366,-0.0
 0084333,-0.00084079,0.00155466,0.00048700,-0.00024106,-0.00076156,-0.0
 0024741,0.00020299,-0.00004579,0.00001499,0.00013381,-0.00019555,-0.00
 148129,-0.00005057,-0.00156762,0.00010659,0.00006888,0.00010673,0.0000
 9780,0.00007188,0.00035114,0.01019707,0.00700404,-0.00982448,-0.003397
 95,-0.00039305,-0.00178800,0.00010331,-0.00010632,0.00012939,0.0001017
 1,0.00000893,0.00008957,-0.00007185,0.00028281,0.00014540,0.00894745,0
 .00553471,-0.00414278,-0.04496354,-0.04688115,0.05889752,0.03088594,0.
 00015958,0.00003895,-0.00024938,-0.00017759,0.00036627,-0.00028046,-0.
 00154765,-0.00081488,0.00168089,0.00155892,-0.00035423,-0.00083310,-0.
 00047960,0.00005340,0.00004173,0.00039411,0.00056576,-0.00011441,0.000
 84260,-0.00086698,-0.00126774,-0.00005432,-0.00022271,0.00012483,0.000
 58722,-0.00049431,0.00027736,0.00511418,0.00233717,0.00299860,-0.00404
 399,-0.00047272,0.0000