 Default is to use a total of   8 processors:
                                8 via shared-memory
                                1 via Linda
 Entering Link 1 = C:\G16W\l1.exe PID=     12224.
  
 Copyright (c) 1988-2019, Gaussian, Inc.  All Rights Reserved.
  
 This is part of the Gaussian(R) 16 program.  It is based on
 the Gaussian(R) 09 system (copyright 2009, Gaussian, Inc.),
 the Gaussian(R) 03 system (copyright 2003, Gaussian, Inc.),
 the Gaussian(R) 98 system (copyright 1998, Gaussian, Inc.),
 the Gaussian(R) 94 system (copyright 1995, Gaussian, Inc.),
 the Gaussian 92(TM) system (copyright 1992, Gaussian, Inc.),
 the Gaussian 90(TM) system (copyright 1990, Gaussian, Inc.),
 the Gaussian 88(TM) system (copyright 1988, Gaussian, Inc.),
 the Gaussian 86(TM) system (copyright 1986, Carnegie Mellon
 University), and the Gaussian 82(TM) system (copyright 1983,
 Carnegie Mellon University). Gaussian is a federally registered
 trademark of Gaussian, Inc.
  
 This software contains proprietary and confidential information,
 including trade secrets, belonging to Gaussian, Inc.
  
 This software is provided under written license and may be
 used, copied, transmitted, or stored only in accord with that
 written license.
  
 The following legend is applicable only to US Government
 contracts under FAR:
  
                    RESTRICTED RIGHTS LEGEND
  
 Use, reproduction and disclosure by the US Government is
 subject to restrictions as set forth in subparagraphs (a)
 and (c) of the Commercial Computer Software - Restricted
 Rights clause in FAR 52.227-19.
  
 Gaussian, Inc.
 340 Quinnipiac St., Bldg. 40, Wallingford CT 06492
  
  
 ---------------------------------------------------------------
 Warning -- This program may not be used in any manner that
 competes with the business of Gaussian, Inc. or will provide
 assistance to any competitor of Gaussian, Inc.  The licensee
 of this program is prohibited from giving any competitor of
 Gaussian, Inc. access to this program.  By using this program,
 the user acknowledges that Gaussian, Inc. is engaged in the
 business of creating and licensing software in the field of
 computational chemistry and represents and warrants to the
 licensee that it is not a competitor of Gaussian, Inc. and that
 it will not use this program in any manner prohibited above.
 ---------------------------------------------------------------
  

 Cite this work as:
 Gaussian 16, Revision C.01,
 M. J. Frisch, G. W. Trucks, H. B. Schlegel, G. E. Scuseria, 
 M. A. Robb, J. R. Cheeseman, G. Scalmani, V. Barone, 
 G. A. Petersson, H. Nakatsuji, X. Li, M. Caricato, A. V. Marenich, 
 J. Bloino, B. G. Janesko, R. Gomperts, B. Mennucci, H. P. Hratchian, 
 J. V. Ortiz, A. F. Izmaylov, J. L. Sonnenberg, D. Williams-Young, 
 F. Ding, F. Lipparini, F. Egidi, J. Goings, B. Peng, A. Petrone, 
 T. Henderson, D. Ranasinghe, V. G. Zakrzewski, J. Gao, N. Rega, 
 G. Zheng, W. Liang, M. Hada, M. Ehara, K. Toyota, R. Fukuda, 
 J. Hasegawa, M. Ishida, T. Nakajima, Y. Honda, O. Kitao, H. Nakai, 
 T. Vreven, K. Throssell, J. A. Montgomery, Jr., J. E. Peralta, 
 F. Ogliaro, M. J. Bearpark, J. J. Heyd, E. N. Brothers, K. N. Kudin, 
 V. N. Staroverov, T. A. Keith, R. Kobayashi, J. Normand, 
 K. Raghavachari, A. P. Rendell, J. C. Burant, S. S. Iyengar, 
 J. Tomasi, M. Cossi, J. M. Millam, M. Klene, C. Adamo, R. Cammi, 
 J. W. Ochterski, R. L. Martin, K. Morokuma, O. Farkas, 
 J. B. Foresman, and D. J. Fox, Gaussian, Inc., Wallingford CT, 2019.
 
 ******************************************
 Gaussian 16:  EM64W-G16RevC.01 30-May-2019
                15-Nov-2025 
 ******************************************
 %mem=6GB
 %chk=C:\Users\al6323\OneDrive - Imperial College London\Desktop\TSR20251115\SO2_
 opt+freq.chk
 %nprocshared=8
 Will use up to    8 processors via shared memory.
 Default route: MaxDisk=10GB
 ----------------------------------------------------------------------
 # opt=(calcfc,tight,cartesian,maxcycles=200,maxstep=5) freq rpm6 nosym
 m geom=connectivity scf=(xqc,verytight)
 ----------------------------------------------------------------------
 1/6=200,7=10,8=5,10=4,18=10,26=1,38=1,57=2/1,3;
 2/12=2,15=1,17=6,18=5,29=2,40=1/2;
 3/5=2,25=1,41=3900000,71=2,116=1,140=1/1,2,3;
 4/35=1/1;
 5/5=2,8=3,13=1,17=3,35=1,38=5/2,8;
 8/6=4,10=90,11=11/1;
 11/6=1,8=1,9=11,15=111,16=1,31=1/1,2,10;
 10/6=1,13=1,31=1/2;
 6/7=2,8=2,9=2,10=2,28=1/1;
 7/7=1,10=1,25=1,30=1/1,2,3,16;
 1/6=200,7=10,8=5,10=4,18=10,26=1/3(2);
 2/15=1,29=1/2;
 99/12=1/99;
 2/15=1,29=1/2;
 3/5=2,25=1,41=3900000,71=1,116=1,135=20/1,2,3;
 4/5=5,16=3,35=1/1;
 5/5=2,8=3,13=1,17=3,35=1,38=5/2,8;
 7/7=1,30=1/1,2,3,16;
 1/6=200,7=10,8=5,18=10,26=1/3(-5);
 2/15=1,29=1/2;
 6/7=2,8=2,9=2,10=2,19=2,28=1/1;
 99/9=1,12=1/99;
 -------------------
 Title Card Required
 -------------------
 Symbolic Z-matrix:
 Charge =  0 Multiplicity = 1
 S                    -1.5694   -0.34981   0. 
 O                    -0.86334   0.93907   0. 
 O                    -0.80622  -1.60571   0. 
 

 GradGradGradGradGradGradGradGradGradGradGradGradGradGradGradGradGradGrad
 Berny optimization.
 Initialization pass.
 No Z-matrix variables, so optimization will use Cartesian coordinates.
 Trust Radius=5.00D-02 FncErr=1.00D-07 GrdErr=1.00D-07 EigMax=2.50D+02 EigMin=1.00D-04
 Number of steps in this run=    100 maximum allowed number of steps=    100.
 GradGradGradGradGradGradGradGradGradGradGradGradGradGradGradGradGradGrad

 ---------------------------------------------------------------------------------------------------
                            Z-MATRIX (ANGSTROMS AND DEGREES)
   CD    Cent   Atom    N1       Length/X        N2       Alpha/Y        N3        Beta/Z          J
 ---------------------------------------------------------------------------------------------------
      1      1  S        0  -1.569396         -0.349808          0.000000
      2      2  O        0  -0.863342          0.939072          0.000000
      3      3  O        0  -0.806220         -1.605709          0.000000
 ---------------------------------------------------------------------------------------------------
                         Z-Matrix orientation:                         
 ---------------------------------------------------------------------
 Center     Atomic      Atomic             Coordinates (Angstroms)
 Number     Number       Type             X           Y           Z
 ---------------------------------------------------------------------
      1         16           0       -1.569396   -0.349808    0.000000
      2          8           0       -0.863342    0.939072    0.000000
      3          8           0       -0.806220   -1.605709    0.000000
 ---------------------------------------------------------------------
                    Distance matrix (angstroms):
                    1          2          3
     1  S    0.000000
     2  O    1.469600   0.000000
     3  O    1.469600   2.545422   0.000000
 Symmetry turned off by external request.
 Stoichiometry    O2S
 Framework group  C2V[C2(S),SGV(O2)]
 Deg. of freedom     2
 Full point group                 C2V     NOp   4
 Rotational constants (GHZ):          58.5352614           9.7531685           8.3601903
 Standard basis: VSTO-6G (5D, 7F)
    17 basis functions,   108 primitive gaussians,    18 cartesian basis functions
     9 alpha electrons        9 beta electrons
       nuclear repulsion energy        53.8179704775 Hartrees.
 Integral buffers will be    131072 words long.
 Regular integral format.
 Two-electron integral symmetry is turned off.
 Do NDO integrals.
 One-electron integrals computed using PRISM.
 NBasis=    17 RedAO= F EigKep=  0.00D+00  NBF=    17
 NBsUse=    17 1.00D-04 EigRej=  0.00D+00 NBFU=    17
 Nonelectrostatic core Hamiltonian diagonalized for initial guess.
 Keep J ints in memory in canonical form, NReq=1848882.
 Overlap will be assumed to be unity.
 Requested convergence on RMS density matrix=1.00D-08 within  32 cycles.
 Requested convergence on MAX density matrix=1.00D-06.
 Requested convergence on             energy=1.00D-06.
 No special actions if energy rises.
 SCF Done:  E(RPM6) = -0.915848879969E-01 A.U. after   14 cycles
            NFock= 13  Conv=0.48D-08     -V/T= 0.9980
 QCSCF skips out because SCF is already converged.
 Range of M.O.s used for correlation:     1    17
 NBasis=    17 NAE=     9 NBE=     9 NFC=     0 NFV=     0
 NROrb=     17 NOA=     9 NOB=     9 NVA=     8 NVB=     8
 Symmetrizing basis deriv contribution to polar:
 IMax=3 JMax=2 DiffMx= 0.00D+00
 G2DrvN: will do     4 centers at a time, making    1 passes.
 Calling FoFCou, ICntrl=  3107 FMM=F I1Cent=   0 AccDes= 0.00D+00.
 End of G2Drv F.D. properties file   721 does not exist.
 End of G2Drv F.D. properties file   722 does not exist.
 End of G2Drv F.D. properties file   788 does not exist.
          IDoAtm=111
          Differentiating once with respect to nuclear coordinates.
          Electric field/nuclear overlap derivatives assumed to be zero.
 Keep J ints in memory in canonical form, NReq=1849389.
          There are    12 degrees of freedom in the 1st order CPHF.  IDoFFX=5 NUNeed=    12.
 LinEq1:  Iter=  0 NonCon=     9 RMS=4.55D-02 Max=2.17D-01 NDo=     9
 AX will form     9 AO Fock derivatives at one time.
 LinEq1:  Iter=  1 NonCon=     9 RMS=2.07D-02 Max=1.31D-01 NDo=     9
 LinEq1:  Iter=  2 NonCon=     9 RMS=2.74D-03 Max=1.11D-02 NDo=     9
 LinEq1:  Iter=  3 NonCon=     9 RMS=4.54D-04 Max=1.67D-03 NDo=     9
 LinEq1:  Iter=  4 NonCon=     9 RMS=8.61D-05 Max=3.70D-04 NDo=     9
 LinEq1:  Iter=  5 NonCon=     9 RMS=2.51D-05 Max=1.06D-04 NDo=     9
 LinEq1:  Iter=  6 NonCon=     9 RMS=5.86D-06 Max=1.81D-05 NDo=     9
 LinEq1:  Iter=  7 NonCon=     9 RMS=1.14D-06 Max=4.60D-06 NDo=     9
 LinEq1:  Iter=  8 NonCon=     6 RMS=2.55D-07 Max=9.64D-07 NDo=     9
 LinEq1:  Iter=  9 NonCon=     5 RMS=4.17D-08 Max=1.49D-07 NDo=     6
 LinEq1:  Iter= 10 NonCon=     0 RMS=5.29D-09 Max=2.15D-08 NDo=     5
 Linear equations converged to 1.000D-08 1.000D-07 after    10 iterations.
 End of Minotr F.D. properties file   721 does not exist.
 End of Minotr F.D. properties file   722 does not exist.
 End of Minotr F.D. properties file   788 does not exist.

 **********************************************************************

            Population analysis using the SCF Density.

 **********************************************************************

 Alpha  occ. eigenvalues --   -1.17871  -1.07926  -0.76133  -0.56299  -0.55230
 Alpha  occ. eigenvalues --   -0.53082  -0.44036  -0.43694  -0.37955
 Alpha virt. eigenvalues --   -0.04576   0.01277   0.05498   0.22318   0.23962
 Alpha virt. eigenvalues --    0.24267   0.24535   0.28319
          Condensed to atoms (all electrons):
               1          2          3
     1  S    4.812681   0.000000   0.000000
     2  O    0.000000   6.593659   0.000000
     3  O    0.000000   0.000000   6.593659
 Mulliken charges:
               1
     1  S    1.187319
     2  O   -0.593659
     3  O   -0.593659
 Sum of Mulliken charges =   0.00000
 Mulliken charges with hydrogens summed into heavy atoms:
               1
     1  S    1.187319
     2  O   -0.593659
     3  O   -0.593659
 APT charges:
               1
     1  S    1.187319
     2  O   -0.593659
     3  O   -0.593659
 Sum of APT charges =   0.00000
 APT charges with hydrogens summed into heavy atoms:
               1
     1  S    1.187319
     2  O   -0.593659
     3  O   -0.593659
 Charge=              0.0000 electrons
 Dipole moment (field-independent basis, Debye):
    X=             -2.8141    Y=             -0.0187    Z=              0.0000  Tot=              2.8142
 N-N= 5.381797047747D+01 E-N=-4.966825275996D+01  KE=-4.630637238521D+01
  Exact polarizability:       0.000       0.000       0.000       0.000       0.000       0.000
 Approx polarizability:      14.213      -0.833      57.292       0.000       0.000       6.417
 Calling FoFJK, ICntrl=    100127 FMM=F ISym2X=0 I1Cent= 0 IOpClX= 0 NMat=1 NMatS=1 NMatT=0.
 -------------------------------------------------------------------
 Center     Atomic                   Forces (Hartrees/Bohr)
 Number     Number              X              Y              Z
 -------------------------------------------------------------------
      1       16           0.057119762    0.001282133    0.000000000
      2        8          -0.027827656   -0.033261858    0.000000000
      3        8          -0.029292106    0.031979724    0.000000000
 -------------------------------------------------------------------
 Cartesian Forces:  Max     0.057119762 RMS     0.027939957

 GradGradGradGradGradGradGradGradGradGradGradGradGradGradGradGradGradGrad
 Berny optimization.
 Search for a local minimum.
 Step number   1 out of a maximum of  100
 All quantities printed in internal units (Hartrees-Bohrs-Radians)
 Second derivative matrix not updated -- analytic derivatives used.
 The second derivative matrix:
                          X1        Y1        Z1        X2        Y2
           X1           0.23579
           Y1          -0.00925   0.64754
           Z1           0.00000   0.00000   0.04115
           X2          -0.11056  -0.17032   0.00000   0.10902
           Y2          -0.14698  -0.33111   0.00000   0.15777   0.36904
           Z2           0.00000   0.00000  -0.02057   0.00000   0.00000
           X3          -0.12523   0.17957   0.00000   0.00154  -0.01078
           Y3           0.15623  -0.31644   0.00000   0.01256  -0.03794
           Z3           0.00000   0.00000  -0.02057   0.00000   0.00000
                          Z2        X3        Y3        Z3
           Z2           0.01707
           X3           0.00000   0.12369
           Y3           0.00000  -0.16879   0.35438
           Z3           0.00350   0.00000   0.00000   0.01707
 ITU=  0
     Eigenvalues ---    0.11268   0.64048   1.06791
 RFO step:  Lambda=-1.34206948D-02 EMin= 1.12682286D-01
 Linear search not attempted -- first point.
 Maximum step size (   0.050) exceeded in Quadratic search.
    -- Step size scaled by   0.245
 B after Tr=     0.000000    0.000000    0.000000
         Rot=    1.000000    0.000000    0.000000    0.000000 Ang=   0.00 deg.
 Variable       Old X    -DE/DX   Delta X   Delta X   Delta X     New X
                                 (Linear)    (Quad)   (Total)
    X1       -2.96573   0.05712   0.00000   0.04066   0.04066  -2.92507
    Y1       -0.66104   0.00128   0.00000   0.00091   0.00091  -0.66013
    Z1        0.00000   0.00000   0.00000   0.00000   0.00000   0.00000
    X2       -1.63148  -0.02783   0.00000  -0.02040  -0.02040  -1.65188
    Y2        1.77459  -0.03326   0.00000   0.00263   0.00263   1.77721
    Z2        0.00000   0.00000   0.00000   0.00000   0.00000   0.00000
    X3       -1.52354  -0.02929   0.00000  -0.02026  -0.02026  -1.54380
    Y3       -3.03435   0.03198   0.00000  -0.00354  -0.00354  -3.03789
    Z3        0.00000   0.00000   0.00000   0.00000   0.00000   0.00000
         Item               Value     Threshold  Converged?
 Maximum Force            0.057120     0.000015     NO 
 RMS     Force            0.027940     0.000010     NO 
 Maximum Displacement     0.040659     0.000060     NO 
 RMS     Displacement     0.016667     0.000040     NO 
 Predicted change in Energy=-2.899138D-03
 GradGradGradGradGradGradGradGradGradGradGradGradGradGradGradGradGradGrad

                          Input orientation:                          
 ---------------------------------------------------------------------
 Center     Atomic      Atomic             Coordinates (Angstroms)
 Number     Number       Type             X           Y           Z
 ---------------------------------------------------------------------
      1         16           0       -1.547880   -0.349325    0.000000
      2          8           0       -0.874136    0.940461    0.000000
      3          8           0       -0.816942   -1.607582    0.000000
 ---------------------------------------------------------------------
                    Distance matrix (angstroms):
                    1          2          3
     1  S    0.000000
     2  O    1.455157   0.000000
     3  O    1.455157   2.548685   0.000000
 Symmetry turned off by external request.
 Stoichiometry    O2S
 Framework group  C2V[C2(S),SGV(O2)]
 Deg. of freedom     2
 Full point group                 C2V     NOp   4
 Rotational constants (GHZ):          64.0384510           9.7282101           8.4452719
 Standard basis: VSTO-6G (5D, 7F)
    17 basis functions,   108 primitive gaussians,    18 cartesian basis functions
     9 alpha electrons        9 beta electrons
       nuclear repulsion energy        53.9411622896 Hartrees.
 Integral buffers will be    131072 words long.
 Regular integral format.
 Two-electron integral symmetry is turned off.
 Do NDO integrals.
 One-electron integrals computed using PRISM.
 NBasis=    17 RedAO= F EigKep=  0.00D+00  NBF=    17
 NBsUse=    17 1.00D-04 EigRej=  0.00D+00 NBFU=    17
 Initial guess from the checkpoint file:  "C:\Users\al6323\OneDrive - Imperial College London\Desktop\TSR20251115\SO2_opt+freq.chk"
 B after Tr=     0.010165    0.000228    0.000000
         Rot=    1.000000    0.000000    0.000000    0.000000 Ang=   0.00 deg.
 Keep J ints in memory in canonical form, NReq=1848882.
 Overlap will be assumed to be unity.
 Requested convergence on RMS density matrix=1.00D-08 within  32 cycles.
 Requested convergence on MAX density matrix=1.00D-06.
 Requested convergence on             energy=1.00D-06.
 No special actions if energy rises.
 SCF Done:  E(RPM6) = -0.944910172535E-01 A.U. after   12 cycles
            NFock= 11  Conv=0.80D-08     -V/T= 0.9980
 QCSCF skips out because SCF is already converged.
 Calling FoFJK, ICntrl=      2127 FMM=F ISym2X=0 I1Cent= 0 IOpClX= 0 NMat=1 NMatS=1 NMatT=0.
 -------------------------------------------------------------------
 Center     Atomic                   Forces (Hartrees/Bohr)
 Number     Number              X              Y              Z
 -------------------------------------------------------------------
      1       16           0.044021290    0.000988115    0.000000000
      2        8          -0.021462082   -0.024932617    0.000000000
      3        8          -0.022559208    0.023944502    0.000000000
 -------------------------------------------------------------------
 Cartesian Forces:  Max     0.044021290 RMS     0.021352501

 GradGradGradGradGradGradGradGradGradGradGradGradGradGradGradGradGradGrad
 Berny optimization.
 Search for a local minimum.
 Step number   2 out of a maximum of  100
 All quantities printed in internal units (Hartrees-Bohrs-Radians)
 Update second derivatives using D2CorN and points    1    2
 DE= -2.91D-03 DEPred=-2.90D-03 R= 1.00D+00
 TightC=F SS=  1.41D+00  RLast= 5.00D-02 DXNew= 8.4090D-02 1.5000D-01
 Trust test= 1.00D+00 RLast= 5.00D-02 DXMaxT set to 8.41D-02
 The second derivative matrix:
                          X1        Y1        Z1        X2        Y2
           X1           0.23036
           Y1          -0.00937   0.64754
           Z1           0.00000   0.00000   0.04115
           X2          -0.10781  -0.17026   0.00000   0.10763
           Y2          -0.14842  -0.33114   0.00000   0.15849   0.36888
           Z2           0.00000   0.00000  -0.02057   0.00000   0.00000
           X3          -0.12255   0.17963   0.00000   0.00019  -0.01007
           Y3           0.15778  -0.31640   0.00000   0.01178  -0.03774
           Z3           0.00000   0.00000  -0.02057   0.00000   0.00000
                          Z2        X3        Y3        Z3
           Z2           0.01707
           X3           0.00000   0.12236
           Y3           0.00000  -0.16956   0.35415
           Z3           0.00350   0.00000   0.00000   0.01707
 ITU=  1  0
 Linear search step of   0.100 exceeds DXMaxT=   0.084 but not scaled.
 Quartic linear search produced a step of  2.00000.
 B after Tr=     0.000000    0.000000    0.000000
         Rot=    1.000000    0.000000    0.000000    0.000000 Ang=   0.00 deg.
 Variable       Old X    -DE/DX   Delta X   Delta X   Delta X     New X
                                 (Linear)    (Quad)   (Total)
    X1       -2.92507   0.04402   0.08132   0.00000   0.08132  -2.84375
    Y1       -0.66013   0.00099   0.00183   0.00000   0.00183  -0.65830
    Z1        0.00000   0.00000   0.00000   0.00000   0.00000   0.00000
    X2       -1.65188  -0.02146  -0.04080   0.00000  -0.04080  -1.69268
    Y2        1.77721  -0.02493   0.00525   0.00000   0.00525   1.78247
    Z2        0.00000   0.00000   0.00000   0.00000   0.00000   0.00000
    X3       -1.54380  -0.02256  -0.04052   0.00000  -0.04052  -1.58432
    Y3       -3.03789   0.02394  -0.00708   0.00000  -0.00708  -3.04497
    Z3        0.00000   0.00000   0.00000   0.00000   0.00000   0.00000
         Item               Value     Threshold  Converged?
 Maximum Force            0.044021     0.000015     NO 
 RMS     Force            0.021353     0.000010     NO 
 Maximum Displacement     0.081318     0.000060     NO 
 RMS     Displacement     0.033333     0.000040     NO 
 Predicted change in Energy=-3.573241D-03
 GradGradGradGradGradGradGradGradGradGradGradGradGradGradGradGradGradGrad

                          Input orientation:                          
 ---------------------------------------------------------------------
 Center     Atomic      Atomic             Coordinates (Angstroms)
 Number     Number       Type             X           Y           Z
 ---------------------------------------------------------------------
      1         16           0       -1.504849   -0.348360    0.000000
      2          8           0       -0.895726    0.943241    0.000000
      3          8           0       -0.838384   -1.611327    0.000000
 ---------------------------------------------------------------------
                    Distance matrix (angstroms):
                    1          2          3
     1  S    0.000000
     2  O    1.428027   0.000000
     3  O    1.428027   2.555211   0.000000
 Symmetry turned off by external request.
 Stoichiometry    O2S
 Framework group  CS[SG(O2S)]
 Deg. of freedom     3
 Full point group                 CS      NOp   2
 Rotational constants (GHZ):          77.6563028           9.6785800           8.6059855
 Standard basis: VSTO-6G (5D, 7F)
    17 basis functions,   108 primitive gaussians,    18 cartesian basis functions
     9 alpha electrons        9 beta electrons
       nuclear repulsion energy        54.1768956830 Hartrees.
 Integral buffers will be    131072 words long.
 Regular integral format.
 Two-electron integral symmetry is turned off.
 Do NDO integrals.
 One-electron integrals computed using PRISM.
 NBasis=    17 RedAO= F EigKep=  0.00D+00  NBF=    17
 NBsUse=    17 1.00D-04 EigRej=  0.00D+00 NBFU=    17
 Initial guess from the checkpoint file:  "C:\Users\al6323\OneDrive - Imperial College London\Desktop\TSR20251115\SO2_opt+freq.chk"
 B after Tr=     0.020330    0.000456    0.000000
         Rot=    1.000000    0.000000    0.000000    0.000000 Ang=   0.00 deg.
 Keep J ints in memory in canonical form, NReq=1848882.
 Overlap will be assumed to be unity.
 Requested convergence on RMS density matrix=1.00D-08 within  32 cycles.
 Requested convergence on MAX density matrix=1.00D-06.
 Requested convergence on             energy=1.00D-06.
 No special actions if energy rises.
 SCF Done:  E(RPM6) = -0.981798142145E-01 A.U. after   13 cycles
            NFock= 12  Conv=0.34D-08     -V/T= 0.9979
 QCSCF skips out because SCF is already converged.
 Calling FoFJK, ICntrl=      2127 FMM=F ISym2X=0 I1Cent= 0 IOpClX= 0 NMat=1 NMatS=1 NMatT=0.
 -------------------------------------------------------------------
 Center     Atomic                   Forces (Hartrees/Bohr)
 Number     Number              X              Y              Z
 -------------------------------------------------------------------
      1       16           0.020260578    0.000454762    0.000000000
      2        8          -0.009965183   -0.007582728    0.000000000
      3        8          -0.010295395    0.007127966    0.000000000
 -------------------------------------------------------------------
 Cartesian Forces:  Max     0.020260578 RMS     0.008970963

 GradGradGradGradGradGradGradGradGradGradGradGradGradGradGradGradGradGrad
 Berny optimization.
 Search for a local minimum.
 Step number   3 out of a maximum of  100
 All quantities printed in internal units (Hartrees-Bohrs-Radians)
 Update second derivatives using D2CorN and points    2    3
 The second derivative matrix:
                          X1        Y1        Z1        X2        Y2
           X1           0.21066
           Y1          -0.00981   0.64753
           Z1           0.00000   0.00000   0.04115
           X2          -0.09787  -0.17004   0.00000   0.10261
           Y2          -0.15240  -0.33123   0.00000   0.16049   0.36845
           Z2           0.00000   0.00000  -0.02057   0.00000   0.00000
           X3          -0.11279   0.17985   0.00000  -0.00474  -0.00809
           Y3           0.16221  -0.31630   0.00000   0.00955  -0.03722
           Z3           0.00000   0.00000  -0.02057   0.00000   0.00000
                          Z2        X3        Y3        Z3
           Z2           0.01707
           X3           0.00000   0.11753
           Y3           0.00000  -0.17176   0.35353
           Z3           0.00350   0.00000   0.00000   0.01707
 ITU=  0  1  0
 Linear search step of   0.106 exceeds DXMaxT=   0.084 but not scaled.
 Quartic linear search produced a step of  1.06091.
 B after Tr=     0.000000    0.000000    0.000000
         Rot=    1.000000    0.000000    0.000000    0.000000 Ang=   0.00 deg.
 Variable       Old X    -DE/DX   Delta X   Delta X   Delta X     New X
                                 (Linear)    (Quad)   (Total)
    X1       -2.84375   0.02026   0.08627   0.00000   0.08627  -2.75748
    Y1       -0.65830   0.00045   0.00194   0.00000   0.00194  -0.65637
    Z1        0.00000   0.00000   0.00000   0.00000   0.00000   0.00000
    X2       -1.69268  -0.00997  -0.04328   0.00000  -0.04328  -1.73596
    Y2        1.78247  -0.00758   0.00557   0.00000   0.00557   1.78804
    Z2        0.00000   0.00000   0.00000   0.00000   0.00000   0.00000
    X3       -1.58432  -0.01030  -0.04299   0.00000  -0.04299  -1.62731
    Y3       -3.04497   0.00713  -0.00751   0.00000  -0.00751  -3.05248
    Z3        0.00000   0.00000   0.00000   0.00000   0.00000   0.00000
         Item               Value     Threshold  Converged?
 Maximum Force            0.020261     0.000015     NO 
 RMS     Force            0.008971     0.000010     NO 
 Maximum Displacement     0.086271     0.000060     NO 
 RMS     Displacement     0.035364     0.000040     NO 
 Predicted change in Energy=-1.013649D-03
 GradGradGradGradGradGradGradGradGradGradGradGradGradGradGradGradGradGrad

                          Input orientation:                          
 ---------------------------------------------------------------------
 Center     Atomic      Atomic             Coordinates (Angstroms)
 Number     Number       Type             X           Y           Z
 ---------------------------------------------------------------------
      1         16           0       -1.459196   -0.347335    0.000000
      2          8           0       -0.918630    0.946189    0.000000
      3          8           0       -0.861133   -1.615301    0.000000
 ---------------------------------------------------------------------
                    Distance matrix (angstroms):
                    1          2          3
     1  S    0.000000
     2  O    1.401933   0.000000
     3  O    1.401933   2.562135   0.000000
 Symmetry turned off by external request.
 Stoichiometry    O2S
 Framework group  CS[SG(O2S)]
 Deg. of freedom     3
 Full point group                 CS      NOp   2
 Rotational constants (GHZ):          97.4613101           9.6263410           8.7610084
 Standard basis: VSTO-6G (5D, 7F)
    17 basis functions,   108 primitive gaussians,    18 cartesian basis functions
     9 alpha electrons        9 beta electrons
       nuclear repulsion energy        54.4089101395 Hartrees.
 Integral buffers will be    131072 words long.
 Regular integral format.
 Two-electron integral symmetry is turned off.
 Do NDO integrals.
 One-electron integrals computed using PRISM.
 NBasis=    17 RedAO= F EigKep=  0.00D+00  NBF=    17
 NBsUse=    17 1.00D-04 EigRej=  0.00D+00 NBFU=    17
 Initial guess from the checkpoint file:  "C:\Users\al6323\OneDrive - Imperial College London\Desktop\TSR20251115\SO2_opt+freq.chk"
 B after Tr=     0.021568    0.000484    0.000000
         Rot=    1.000000    0.000000    0.000000    0.000000 Ang=   0.00 deg.
 Keep J ints in memory in canonical form, NReq=1848882.
 Overlap will be assumed to be unity.
 Requested convergence on RMS density matrix=1.00D-08 within  32 cycles.
 Requested convergence on MAX density matrix=1.00D-06.
 Requested convergence on             energy=1.00D-06.
 No special actions if energy rises.
 SCF Done:  E(RPM6) = -0.994312298310E-01 A.U. after   13 cycles
            NFock= 12  Conv=0.33D-08     -V/T= 0.9979
 QCSCF skips out because SCF is already converged.
 Calling FoFJK, ICntrl=      2127 FMM=F ISym2X=0 I1Cent= 0 IOpClX= 0 NMat=1 NMatS=1 NMatT=0.
 -------------------------------------------------------------------
 Center     Atomic                   Forces (Hartrees/Bohr)
 Number     Number              X              Y              Z
 -------------------------------------------------------------------
      1       16          -0.000466913   -0.000010508    0.000000000
      2        8          -0.000017378    0.011180287    0.000000000
      3        8           0.000484291   -0.011169778    0.000000000
 -------------------------------------------------------------------
 Cartesian Forces:  Max     0.011180287 RMS     0.005272736

 GradGradGradGradGradGradGradGradGradGradGradGradGradGradGradGradGradGrad
 Berny optimization.
 Search for a local minimum.
 Step number   4 out of a maximum of  100
 All quantities printed in internal units (Hartrees-Bohrs-Radians)
 Update second derivatives using D2CorN and points    3    4
 The second derivative matrix:
                          X1        Y1        Z1        X2        Y2
           X1           0.17659
           Y1          -0.01058   0.64751
           Z1           0.00000   0.00000   0.04115
           X2          -0.08074  -0.16965   0.00000   0.09400
           Y2          -0.15621  -0.33131   0.00000   0.16241   0.36810
           Z2           0.00000   0.00000  -0.02057   0.00000   0.00000
           X3          -0.09585   0.18023   0.00000  -0.01326  -0.00619
           Y3           0.16679  -0.31620   0.00000   0.00725  -0.03679
           Z3           0.00000   0.00000  -0.02057   0.00000   0.00000
                          Z2        X3        Y3        Z3
           Z2           0.01707
           X3           0.00000   0.10911
           Y3           0.00000  -0.17404   0.35299
           Z3           0.00350   0.00000   0.00000   0.01707
 ITU=  0  0  1  0
     Eigenvalues ---    0.04320   0.61880   1.06473
 RFO step:  Lambda=-2.23172295D-03 EMin= 4.31969321D-02
 Quartic linear search produced a step of  0.04073.
 Maximum step size (   0.084) exceeded in Quadratic search.
    -- Step size scaled by   0.408
 B after Tr=     0.000000    0.000000    0.000000
         Rot=    1.000000    0.000000    0.000000    0.000000 Ang=   0.00 deg.
 Variable       Old X    -DE/DX   Delta X   Delta X   Delta X     New X
                                 (Linear)    (Quad)   (Total)
    X1       -2.75748  -0.00047   0.00351   0.04881   0.05233  -2.70515
    Y1       -0.65637  -0.00001   0.00008   0.00110   0.00117  -0.65519
    Z1        0.00000   0.00000   0.00000   0.00000   0.00000   0.00000
    X2       -1.73596  -0.00002  -0.00176  -0.02534  -0.02711  -1.76307
    Y2        1.78804   0.01118   0.00023   0.04125   0.04147   1.82951
    Z2        0.00000   0.00000   0.00000   0.00000   0.00000   0.00000
    X3       -1.62731   0.00048  -0.00175  -0.02347  -0.02522  -1.65253
    Y3       -3.05248  -0.01117  -0.00031  -0.04234  -0.04265  -3.09512
    Z3        0.00000   0.00000   0.00000   0.00000   0.00000   0.00000
         Item               Value     Threshold  Converged?
 Maximum Force            0.011180     0.000015     NO 
 RMS     Force            0.005273     0.000010     NO 
 Maximum Displacement     0.052327     0.000060     NO 
 RMS     Displacement     0.029153     0.000040     NO 
 Predicted change in Energy=-7.248308D-04
 GradGradGradGradGradGradGradGradGradGradGradGradGradGradGradGradGradGrad

                          Input orientation:                          
 ---------------------------------------------------------------------
 Center     Atomic      Atomic             Coordinates (Angstroms)
 Number     Number       Type             X           Y           Z
 ---------------------------------------------------------------------
      1         16           0       -1.431506   -0.346713    0.000000
      2          8           0       -0.932974    0.968136    0.000000
      3          8           0       -0.874479   -1.637868    0.000000
 ---------------------------------------------------------------------
                    Distance matrix (angstroms):
                    1          2          3
     1  S    0.000000
     2  O    1.406187   0.000000
     3  O    1.406187   2.606660   0.000000
 Symmetry turned off by external request.
 Stoichiometry    O2S
 Framework group  C2V[C2(S),SGV(O2)]
 Deg. of freedom     2
 Full point group                 C2V     NOp   4
 Rotational constants (GHZ):         113.4051830           9.3002871           8.5953850
 Standard basis: VSTO-6G (5D, 7F)
    17 basis functions,   108 primitive gaussians,    18 cartesian basis functions
     9 alpha electrons        9 beta electrons
       nuclear repulsion energy        54.2765220554 Hartrees.
 Integral buffers will be    131072 words long.
 Regular integral format.
 Two-electron integral symmetry is turned off.
 Do NDO integrals.
 One-electron integrals computed using PRISM.
 NBasis=    17 RedAO= F EigKep=  0.00D+00  NBF=    17
 NBsUse=    17 1.00D-04 EigRej=  0.00D+00 NBFU=    17
 Initial guess from the checkpoint file:  "C:\Users\al6323\OneDrive - Imperial College London\Desktop\TSR20251115\SO2_opt+freq.chk"
 B after Tr=     0.013082    0.000294    0.000000
         Rot=    1.000000    0.000000    0.000000    0.000000 Ang=   0.00 deg.
 Keep J ints in memory in canonical form, NReq=1848882.
 Overlap will be assumed to be unity.
 Requested convergence on RMS density matrix=1.00D-08 within  32 cycles.
 Requested convergence on MAX density matrix=1.00D-06.
 Requested convergence on             energy=1.00D-06.
 No special actions if energy rises.
 SCF Done:  E(RPM6) = -0.100034397285     A.U. after   12 cycles
            NFock= 11  Conv=0.78D-08     -V/T= 0.9978
 QCSCF skips out because SCF is already converged.
 Calling FoFJK, ICntrl=      2127 FMM=F ISym2X=0 I1Cent= 0 IOpClX= 0 NMat=1 NMatS=1 NMatT=0.
 -------------------------------------------------------------------
 Center     Atomic                   Forces (Hartrees/Bohr)
 Number     Number              X              Y              Z
 -------------------------------------------------------------------
      1       16           0.001683973    0.000037791    0.000000000
      2        8          -0.000885440    0.001917056    0.000000000
      3        8          -0.000798533   -0.001954847    0.000000000
 -------------------------------------------------------------------
 Cartesian Forces:  Max     0.001954847 RMS     0.001142871

 GradGradGradGradGradGradGradGradGradGradGradGradGradGradGradGradGradGrad
 Berny optimization.
 Search for a local minimum.
 Step number   5 out of a maximum of  100
 All quantities printed in internal units (Hartrees-Bohrs-Radians)
 Update second derivatives using D2CorN and points    1    2    3    4    5

 DE= -6.03D-04 DEPred=-7.25D-04 R= 8.32D-01
 TightC=F SS=  1.41D+00  RLast= 8.75D-02 DXNew= 1.4142D-01 2.6238D-01
 Trust test= 8.32D-01 RLast= 8.75D-02 DXMaxT set to 1.41D-01
 The second derivative matrix:
                          X1        Y1        Z1        X2        Y2
           X1           0.14702
           Y1          -0.01124   0.64750
           Z1           0.00000   0.00000   0.04115
           X2          -0.06636  -0.16933   0.00000   0.08702
           Y2          -0.13799  -0.33090   0.00000   0.15267   0.39542
           Z2           0.00000   0.00000  -0.02057   0.00000   0.00000
           X3          -0.08067   0.18057   0.00000  -0.02066  -0.01469
           Y3           0.14923  -0.31660   0.00000   0.01666  -0.06452
           Z3           0.00000   0.00000  -0.02057   0.00000   0.00000
                          Z2        X3        Y3        Z3
           Z2           0.01707
           X3           0.00000   0.10133
           Y3           0.00000  -0.16588   0.38112
           Z3           0.00350   0.00000   0.00000   0.01707
 ITU=  1  0  0  1  0
     Eigenvalues ---    0.06169   0.61143   1.06169
 RFO step:  Lambda=-4.52585445D-05 EMin= 6.16854105D-02
 Quartic linear search produced a step of  0.46044.
 B after Tr=     0.000000    0.000000    0.000000
         Rot=    1.000000    0.000000    0.000000    0.000000 Ang=   0.00 deg.
 Variable       Old X    -DE/DX   Delta X   Delta X   Delta X     New X
                                 (Linear)    (Quad)   (Total)
    X1       -2.70515   0.00168   0.02409   0.01259   0.03668  -2.66847
    Y1       -0.65519   0.00004   0.00054   0.00028   0.00082  -0.65437
    Z1        0.00000   0.00000   0.00000   0.00000   0.00000   0.00000
    X2       -1.76307  -0.00089  -0.01248  -0.00631  -0.01879  -1.78186
    Y2        1.82951   0.00192   0.01910   0.00055   0.01965   1.84916
    Z2        0.00000   0.00000   0.00000   0.00000   0.00000   0.00000
    X3       -1.65253  -0.00080  -0.01161  -0.00628  -0.01789  -1.67042
    Y3       -3.09512  -0.00195  -0.01964  -0.00083  -0.02047  -3.11559
    Z3        0.00000   0.00000   0.00000   0.00000   0.00000   0.00000
         Item               Value     Threshold  Converged?
 Maximum Force            0.001955     0.000015     NO 
 RMS     Force            0.001143     0.000010     NO 
 Maximum Displacement     0.036681     0.000060     NO 
 RMS     Displacement     0.017715     0.000040     NO 
 Predicted change in Energy=-8.328677D-05
 GradGradGradGradGradGradGradGradGradGradGradGradGradGradGradGradGradGrad

                          Input orientation:                          
 ---------------------------------------------------------------------
 Center     Atomic      Atomic             Coordinates (Angstroms)
 Number     Number       Type             X           Y           Z
 ---------------------------------------------------------------------
      1         16           0       -1.412095   -0.346278    0.000000
      2          8           0       -0.942918    0.978533    0.000000
      3          8           0       -0.883946   -1.648702    0.000000
 ---------------------------------------------------------------------
                    Distance matrix (angstroms):
                    1          2          3
     1  S    0.000000
     2  O    1.405436   0.000000
     3  O    1.405436   2.627896   0.000000
 Symmetry turned off by external request.
 Stoichiometry    O2S
 Framework group  C2V[C2(S),SGV(O2)]
 Deg. of freedom     2
 Full point group                 C2V     NOp   4
 Rotational constants (GHZ):         127.0348223           9.1505854           8.5357382
 Standard basis: VSTO-6G (5D, 7F)
    17 basis functions,   108 primitive gaussians,    18 cartesian basis functions
     9 alpha electrons        9 beta electrons
       nuclear repulsion energy        54.2407000766 Hartrees.
 Integral buffers will be    131072 words long.
 Regular integral format.
 Two-electron integral symmetry is turned off.
 Do NDO integrals.
 One-electron integrals computed using PRISM.
 NBasis=    17 RedAO= F EigKep=  0.00D+00  NBF=    17
 NBsUse=    17 1.00D-04 EigRej=  0.00D+00 NBFU=    17
 Initial guess from the checkpoint file:  "C:\Users\al6323\OneDrive - Imperial College London\Desktop\TSR20251115\SO2_opt+freq.chk"
 B after Tr=     0.009170    0.000206    0.000000
         Rot=    1.000000    0.000000    0.000000    0.000000 Ang=   0.00 deg.
 Keep J ints in memory in canonical form, NReq=1848882.
 Overlap will be assumed to be unity.
 Requested convergence on RMS density matrix=1.00D-08 within  32 cycles.
 Requested convergence on MAX density matrix=1.00D-06.
 Requested convergence on             energy=1.00D-06.
 No special actions if energy rises.
 SCF Done:  E(RPM6) = -0.100133712714     A.U. after   12 cycles
            NFock= 11  Conv=0.48D-08     -V/T= 0.9978
 QCSCF skips out because SCF is already converged.
 Calling FoFJK, ICntrl=      2127 FMM=F ISym2X=0 I1Cent= 0 IOpClX= 0 NMat=1 NMatS=1 NMatT=0.
 -------------------------------------------------------------------
 Center     Atomic                   Forces (Hartrees/Bohr)
 Number     Number              X              Y              Z
 -------------------------------------------------------------------
      1       16           0.000754077    0.000016923    0.000000000
      2        8          -0.000370308   -0.000308264    0.000000000
      3        8          -0.000383769    0.000291341    0.000000000
 -------------------------------------------------------------------
 Cartesian Forces:  Max     0.000754077 RMS     0.000338827

 GradGradGradGradGradGradGradGradGradGradGradGradGradGradGradGradGradGrad
 Berny optimization.
 Search for a local minimum.
 Step number   6 out of a maximum of  100
 All quantities printed in internal units (Hartrees-Bohrs-Radians)
 Update second derivatives using D2CorN and points    1    2    3    4    5
                                                          6
 DE= -9.93D-05 DEPred=-8.33D-05 R= 1.19D+00
 TightC=F SS=  1.41D+00  RLast= 5.31D-02 DXNew= 2.3784D-01 1.5944D-01
 Trust test= 1.19D+00 RLast= 5.31D-02 DXMaxT set to 1.59D-01
 The second derivative matrix:
                          X1        Y1        Z1        X2        Y2
           X1           0.12809
           Y1          -0.01166   0.64749
           Z1           0.00000   0.00000   0.04115
           X2          -0.05689  -0.16912   0.00000   0.08230
           Y2          -0.13766  -0.33090   0.00000   0.15218   0.41006
           Z2           0.00000   0.00000  -0.02057   0.00000   0.00000
           X3          -0.07120   0.18078   0.00000  -0.02540  -0.01452
           Y3           0.14933  -0.31659   0.00000   0.01693  -0.07916
           Z3           0.00000   0.00000  -0.02057   0.00000   0.00000
                          Z2        X3        Y3        Z3
           Z2           0.01707
           X3           0.00000   0.09660
           Y3           0.00000  -0.16626   0.39576
           Z3           0.00350   0.00000   0.00000   0.01707
 ITU=  1  1  0  0  1  0
     Eigenvalues ---    0.04888   0.62512   1.05920
 RFO step:  Lambda=-2.75274158D-06 EMin= 4.88793990D-02
 Quartic linear search produced a step of  0.21614.
 B after Tr=     0.000000    0.000000    0.000000
         Rot=    1.000000    0.000000    0.000000    0.000000 Ang=   0.00 deg.
 Variable       Old X    -DE/DX   Delta X   Delta X   Delta X     New X
                                 (Linear)    (Quad)   (Total)
    X1       -2.66847   0.00075   0.00793   0.00163   0.00956  -2.65891
    Y1       -0.65437   0.00002   0.00018   0.00004   0.00021  -0.65416
    Z1        0.00000   0.00000   0.00000   0.00000   0.00000   0.00000
    X2       -1.78186  -0.00037  -0.00406  -0.00080  -0.00486  -1.78672
    Y2        1.84916  -0.00031   0.00425  -0.00090   0.00335   1.85251
    Z2        0.00000   0.00000   0.00000   0.00000   0.00000   0.00000
    X3       -1.67042  -0.00038  -0.00387  -0.00084  -0.00470  -1.67512
    Y3       -3.11559   0.00029  -0.00442   0.00086  -0.00356  -3.11916
    Z3        0.00000   0.00000   0.00000   0.00000   0.00000   0.00000
         Item               Value     Threshold  Converged?
 Maximum Force            0.000754     0.000015     NO 
 RMS     Force            0.000339     0.000010     NO 
 Maximum Displacement     0.009562     0.000060     NO 
 RMS     Displacement     0.004231     0.000040     NO 
 Predicted change in Energy=-4.079275D-06
 GradGradGradGradGradGradGradGradGradGradGradGradGradGradGradGradGradGrad

                          Input orientation:                          
 ---------------------------------------------------------------------
 Center     Atomic      Atomic             Coordinates (Angstroms)
 Number     Number       Type             X           Y           Z
 ---------------------------------------------------------------------
      1         16           0       -1.407035   -0.346164    0.000000
      2          8           0       -0.945489    0.980305    0.000000
      3          8           0       -0.886435   -1.650587    0.000000
 ---------------------------------------------------------------------
                    Distance matrix (angstroms):
                    1          2          3
     1  S    0.000000
     2  O    1.404473   0.000000
     3  O    1.404473   2.631555   0.000000
 Symmetry turned off by external request.
 Stoichiometry    O2S
 Framework group  C2V[C2(S),SGV(O2)]
 Deg. of freedom     2
 Full point group                 C2V     NOp   4
 Rotational constants (GHZ):         130.9920394           9.1251553           8.5308781
 Standard basis: VSTO-6G (5D, 7F)
    17 basis functions,   108 primitive gaussians,    18 cartesian basis functions
     9 alpha electrons        9 beta electrons
       nuclear repulsion energy        54.2425297049 Hartrees.
 Integral buffers will be    131072 words long.
 Regular integral format.
 Two-electron integral symmetry is turned off.
 Do NDO integrals.
 One-electron integrals computed using PRISM.
 NBasis=    17 RedAO= F EigKep=  0.00D+00  NBF=    17
 NBsUse=    17 1.00D-04 EigRej=  0.00D+00 NBFU=    17
 Initial guess from the checkpoint file:  "C:\Users\al6323\OneDrive - Imperial College London\Desktop\TSR20251115\SO2_opt+freq.chk"
 B after Tr=     0.002390    0.000054    0.000000
         Rot=    1.000000    0.000000    0.000000    0.000000 Ang=   0.00 deg.
 Keep J ints in memory in canonical form, NReq=1848882.
 Overlap will be assumed to be unity.
 Requested convergence on RMS density matrix=1.00D-08 within  32 cycles.
 Requested convergence on MAX density matrix=1.00D-06.
 Requested convergence on             energy=1.00D-06.
 No special actions if energy rises.
 SCF Done:  E(RPM6) = -0.100138557134     A.U. after   11 cycles
            NFock= 10  Conv=0.30D-08     -V/T= 0.9978
 QCSCF skips out because SCF is already converged.
 Calling FoFJK, ICntrl=      2127 FMM=F ISym2X=0 I1Cent= 0 IOpClX= 0 NMat=1 NMatS=1 NMatT=0.
 -------------------------------------------------------------------
 Center     Atomic                   Forces (Hartrees/Bohr)
 Number     Number              X              Y              Z
 -------------------------------------------------------------------
      1       16           0.000098119    0.000002203    0.000000000
      2        8          -0.000047789   -0.000057729    0.000000000
      3        8          -0.000050331    0.000055526    0.000000000
 -------------------------------------------------------------------
 Cartesian Forces:  Max     0.000098119 RMS     0.000048149

 GradGradGradGradGradGradGradGradGradGradGradGradGradGradGradGradGradGrad
 Berny optimization.
 Search for a local minimum.
 Step number   7 out of a maximum of  100
 All quantities printed in internal units (Hartrees-Bohrs-Radians)
 Update second derivatives using D2CorN and points    1    2    3    4    5
                                                          6    7
 DE= -4.84D-06 DEPred=-4.08D-06 R= 1.19D+00
 TightC=F SS=  1.41D+00  RLast= 1.27D-02 DXNew= 2.6814D-01 3.8080D-02
 Trust test= 1.19D+00 RLast= 1.27D-02 DXMaxT set to 1.59D-01
 The second derivative matrix:
                          X1        Y1        Z1        X2        Y2
           X1           0.11893
           Y1          -0.01187   0.64748
           Z1           0.00000   0.00000   0.04115
           X2          -0.05229  -0.16902   0.00000   0.07999
           Y2          -0.13877  -0.33092   0.00000   0.15249   0.42094
           Z2           0.00000   0.00000  -0.02057   0.00000   0.00000
           X3          -0.06664   0.18089   0.00000  -0.02770  -0.01373
           Y3           0.15064  -0.31656   0.00000   0.01652  -0.09001
           Z3           0.00000   0.00000  -0.02057   0.00000   0.00000
                          Z2        X3        Y3        Z3
           Z2           0.01707
           X3           0.00000   0.09434
           Y3           0.00000  -0.16716   0.40658
           Z3           0.00350   0.00000   0.00000   0.01707
 ITU=  1  1  1  0  0  1  0
     Eigenvalues ---    0.04179   0.64018   1.05852
 RFO step:  Lambda= 0.00000000D+00 EMin= 4.17869782D-02
 Quartic linear search produced a step of  0.13593.
 B after Tr=     0.000000    0.000000    0.000000
         Rot=    1.000000    0.000000    0.000000    0.000000 Ang=   0.00 deg.
 Variable       Old X    -DE/DX   Delta X   Delta X   Delta X     New X
                                 (Linear)    (Quad)   (Total)
    X1       -2.65891   0.00010   0.00130  -0.00004   0.00126  -2.65765
    Y1       -0.65416   0.00000   0.00003   0.00000   0.00003  -0.65413
    Z1        0.00000   0.00000   0.00000   0.00000   0.00000   0.00000
    X2       -1.78672  -0.00005  -0.00066   0.00002  -0.00064  -1.78735
    Y2        1.85251  -0.00006   0.00046  -0.00006   0.00039   1.85290
    Z2        0.00000   0.00000   0.00000   0.00000   0.00000   0.00000
    X3       -1.67512  -0.00005  -0.00064   0.00002  -0.00062  -1.67574
    Y3       -3.11916   0.00006  -0.00048   0.00006  -0.00042  -3.11958
    Z3        0.00000   0.00000   0.00000   0.00000   0.00000   0.00000
         Item               Value     Threshold  Converged?
 Maximum Force            0.000098     0.000015     NO 
 RMS     Force            0.000048     0.000010     NO 
 Maximum Displacement     0.001260     0.000060     NO 
 RMS     Displacement     0.000549     0.000040     NO 
 Predicted change in Energy=-6.683306D-08
 GradGradGradGradGradGradGradGradGradGradGradGradGradGradGradGradGradGrad

                          Input orientation:                          
 ---------------------------------------------------------------------
 Center     Atomic      Atomic             Coordinates (Angstroms)
 Number     Number       Type             X           Y           Z
 ---------------------------------------------------------------------
      1         16           0       -1.406368   -0.346149    0.000000
      2          8           0       -0.945827    0.980513    0.000000
      3          8           0       -0.886763   -1.650810    0.000000
 ---------------------------------------------------------------------
                    Distance matrix (angstroms):
                    1          2          3
     1  S    0.000000
     2  O    1.404326   0.000000
     3  O    1.404326   2.631987   0.000000
 Symmetry turned off by external request.
 Stoichiometry    O2S
 Framework group  C2V[C2(S),SGV(O2)]
 Deg. of freedom     2
 Full point group                 C2V     NOp   4
 Rotational constants (GHZ):         131.5271725           9.1221656           8.5305247
 Standard basis: VSTO-6G (5D, 7F)
    17 basis functions,   108 primitive gaussians,    18 cartesian basis functions
     9 alpha electrons        9 beta electrons
       nuclear repulsion energy        54.2430720695 Hartrees.
 Integral buffers will be    131072 words long.
 Regular integral format.
 Two-electron integral symmetry is turned off.
 Do NDO integrals.
 One-electron integrals computed using PRISM.
 NBasis=    17 RedAO= F EigKep=  0.00D+00  NBF=    17
 NBsUse=    17 1.00D-04 EigRej=  0.00D+00 NBFU=    17
 Initial guess from the checkpoint file:  "C:\Users\al6323\OneDrive - Imperial College London\Desktop\TSR20251115\SO2_opt+freq.chk"
 B after Tr=     0.000315    0.000007    0.000000
         Rot=    1.000000    0.000000    0.000000    0.000000 Ang=   0.00 deg.
 Keep J ints in memory in canonical form, NReq=1848882.
 Overlap will be assumed to be unity.
 Requested convergence on RMS density matrix=1.00D-08 within  32 cycles.
 Requested convergence on MAX density matrix=1.00D-06.
 Requested convergence on             energy=1.00D-06.
 No special actions if energy rises.
 SCF Done:  E(RPM6) = -0.100138627457     A.U. after   10 cycles
            NFock=  9  Conv=0.29D-08     -V/T= 0.9978
 QCSCF skips out because SCF is already converged.
 Calling FoFJK, ICntrl=      2127 FMM=F ISym2X=0 I1Cent= 0 IOpClX= 0 NMat=1 NMatS=1 NMatT=0.
 -------------------------------------------------------------------
 Center     Atomic                   Forces (Hartrees/Bohr)
 Number     Number              X              Y              Z
 -------------------------------------------------------------------
      1       16           0.000001741    0.000000038    0.000000000
      2        8          -0.000000820   -0.000002239    0.000000000
      3        8          -0.000000921    0.000002200    0.000000000
 -------------------------------------------------------------------
 Cartesian Forces:  Max     0.000002239 RMS     0.000001265

 GradGradGradGradGradGradGradGradGradGradGradGradGradGradGradGradGradGrad
 Berny optimization.
 Search for a local minimum.
 Step number   8 out of a maximum of  100
 All quantities printed in internal units (Hartrees-Bohrs-Radians)
 Update second derivatives using D2CorN and points    1    2    3    4    5
                                                          6    7    8
 DE= -7.03D-08 DEPred=-6.68D-08 R= 1.05D+00
 Trust test= 1.05D+00 RLast= 1.65D-03 DXMaxT set to 1.59D-01
 The second derivative matrix:
                          X1        Y1        Z1        X2        Y2
           X1           0.11600
           Y1          -0.01194   0.64748
           Z1           0.00000   0.00000   0.04115
           X2          -0.05080  -0.16898   0.00000   0.07924
           Y2          -0.13967  -0.33094   0.00000   0.15273   0.43028
           Z2           0.00000   0.00000  -0.02057   0.00000   0.00000
           X3          -0.06520   0.18092   0.00000  -0.02844  -0.01306
           Y3           0.15160  -0.31654   0.00000   0.01625  -0.09934
           Z3           0.00000   0.00000  -0.02057   0.00000   0.00000
                          Z2        X3        Y3        Z3
           Z2           0.01707
           X3           0.00000   0.09364
           Y3           0.00000  -0.16785   0.41588
           Z3           0.00350   0.00000   0.00000   0.01707
 ITU=  0  1  1  1  0  0  1  0
     Eigenvalues ---    0.04115   0.65507   1.05843
 RFO step:  Lambda= 0.00000000D+00 EMin= 4.11472617D-02
 Quartic linear search produced a step of  0.01080.
 B after Tr=     0.000000    0.000000    0.000000
         Rot=    1.000000    0.000000    0.000000    0.000000 Ang=   0.00 deg.
 Variable       Old X    -DE/DX   Delta X   Delta X   Delta X     New X
                                 (Linear)    (Quad)   (Total)
    X1       -2.65765   0.00000   0.00001   0.00000   0.00001  -2.65764
    Y1       -0.65413   0.00000   0.00000   0.00000   0.00000  -0.65413
    Z1        0.00000   0.00000   0.00000   0.00000   0.00000   0.00000
    X2       -1.78735   0.00000  -0.00001   0.00000   0.00000  -1.78736
    Y2        1.85290   0.00000   0.00000   0.00000   0.00000   1.85290
    Z2        0.00000   0.00000   0.00000   0.00000   0.00000   0.00000
    X3       -1.67574   0.00000  -0.00001   0.00000   0.00000  -1.67574
    Y3       -3.11958   0.00000   0.00000   0.00000   0.00000  -3.11958
    Z3        0.00000   0.00000   0.00000   0.00000   0.00000   0.00000
         Item               Value     Threshold  Converged?
 Maximum Force            0.000002     0.000015     YES
 RMS     Force            0.000001     0.000010     YES
 Maximum Displacement     0.000010     0.000060     YES
 RMS     Displacement     0.000004     0.000040     YES
 Predicted change in Energy=-1.309020D-11
 Optimization completed.
    -- Stationary point found.
 GradGradGradGradGradGradGradGradGradGradGradGradGradGradGradGradGradGrad

                          Input orientation:                          
 ---------------------------------------------------------------------
 Center     Atomic      Atomic             Coordinates (Angstroms)
 Number     Number       Type             X           Y           Z
 ---------------------------------------------------------------------
      1         16           0       -1.406368   -0.346149    0.000000
      2          8           0       -0.945827    0.980513    0.000000
      3          8           0       -0.886763   -1.650810    0.000000
 ---------------------------------------------------------------------
                    Distance matrix (angstroms):
                    1          2          3
     1  S    0.000000
     2  O    1.404326   0.000000
     3  O    1.404326   2.631987   0.000000
 Symmetry turned off by external request.
 Stoichiometry    O2S
 Framework group  C2V[C2(S),SGV(O2)]
 Deg. of freedom     2
 Full point group                 C2V     NOp   4
 Rotational constants (GHZ):         131.5271725           9.1221656           8.5305247

 **********************************************************************

            Population analysis using the SCF Density.

 **********************************************************************

 Alpha  occ. eigenvalues --   -1.19678  -1.12965  -0.74431  -0.56855  -0.55394
 Alpha  occ. eigenvalues --   -0.54778  -0.44871  -0.44785  -0.36034
 Alpha virt. eigenvalues --   -0.02178   0.00739   0.10697   0.30008   0.30764
 Alpha virt. eigenvalues --    0.31068   0.32313   0.34854
          Condensed to atoms (all electrons):
               1          2          3
     1  S    4.870477   0.000000   0.000000
     2  O    0.000000   6.564762   0.000000
     3  O    0.000000   0.000000   6.564762
 Mulliken charges:
               1
     1  S    1.129523
     2  O   -0.564762
     3  O   -0.564762
 Sum of Mulliken charges =   0.00000
 Mulliken charges with hydrogens summed into heavy atoms:
               1
     1  S    1.129523
     2  O   -0.564762
     3  O   -0.564762
 Charge=              0.0000 electrons
 Dipole moment (field-independent basis, Debye):
    X=             -1.3761    Y=              0.0040    Z=              0.0000  Tot=              1.3761
 N-N= 5.424307206948D+01 E-N=-5.026680334258D+01  KE=-4.642380063393D+01
 Unable to Open any file for archive entry.
 1|1|UNPC-SKCH-134-020|FOpt|RPM6|ZDO|O2S1|AL6323|15-Nov-2025|0||# opt=(
 calcfc,tight,cartesian,maxcycles=200,maxstep=5) freq rpm6 nosymm geom=
 connectivity scf=(xqc,verytight)||Title Card Required||0,1|S,-1.406368
 2101,-0.346149024,0.|O,-0.9458271978,0.9805132576,0.|O,-0.8867631521,-
 1.6508104437,0.||Version=EM64W-G16RevC.01|HF=-0.1001386|RMSD=2.949e-00
 9|RMSF=1.265e-006|Dipole=-0.5413826,0.0015737,0.|PG=C02V [C2(S1),SGV(O
 2)]||@
 The archive entry for this job was punched.


 WAR ES EIN GOTT DER DIESE ZEICHEN SCHRIEB?
          - LUDWIG BOLTZMANN, QUOTING GOETHE, ABOUT MAXWELL'S EQUATIONS.
 Job cpu time:       0 days  0 hours  0 minutes 42.0 seconds.
 Elapsed time:       0 days  0 hours  0 minutes 17.3 seconds.
 File lengths (MBytes):  RWF=      6 Int=      0 D2E=      0 Chk=      2 Scr=      1
 Normal termination of Gaussian 16 at Sat Nov 15 12:48:03 2025.
 Link1:  Proceeding to internal job step number  2.
 -------------------------------------------------------------
 #N Geom=AllCheck Guess=TCheck SCRF=Check GenChk RPM6/ZDO Freq
 -------------------------------------------------------------
 1/6=200,7=10,8=5,10=4,29=7,30=1,38=1,40=1/1,3;
 2/12=2,15=1,40=1/2;
 3/5=2,14=-4,25=1,41=3900000,70=2,71=2,116=1,135=40,140=1/1,2,3;
 4/5=101,35=1/1;
 5/5=2,8=3,13=1,17=3,35=1,38=6,98=1/2,8;
 8/6=4,10=90,11=11/1;
 11/6=1,8=1,9=11,15=111,16=1,31=1/1,2,10;
 10/6=1,31=1/2;
 6/7=2,8=2,9=2,10=2,28=1/1;
 7/8=1,10=1,25=1,30=1/1,2,3,16;
 1/6=200,7=10,8=5,10=4,30=1/3;
 99//99;
 Structure from the checkpoint file:  "C:\Users\al6323\OneDrive - Imperial College London\Desktop\TSR20251115\SO2_opt+freq.chk"
 -------------------
 Title Card Required
 -------------------
 Charge =  0 Multiplicity = 1
 No Z-Matrix found in chk file; cartesian coordinates used.
  S                                                -1.406368210108     -0.346149023961      0.000000000000
  O                                                -0.945827197757      0.980513257628      0.000000000000
  O                                                -0.886763152135     -1.650810443667      0.000000000000
 Recover connectivity data from disk.

 GradGradGradGradGradGradGradGradGradGradGradGradGradGradGradGradGradGrad
 Berny optimization.
 Initialization pass.
 Trust Radius=5.00D-02 FncErr=1.00D-07 GrdErr=1.00D-07 EigMax=2.50D+02 EigMin=1.00D-04
 Number of steps in this run=      2 maximum allowed number of steps=      2.
 GradGradGradGradGradGradGradGradGradGradGradGradGradGradGradGradGradGrad

                          Input orientation:                          
 ---------------------------------------------------------------------
 Center     Atomic      Atomic             Coordinates (Angstroms)
 Number     Number       Type             X           Y           Z
 ---------------------------------------------------------------------
      1         16           0       -1.406368   -0.346149    0.000000
      2          8           0       -0.945827    0.980513    0.000000
      3          8           0       -0.886763   -1.650810    0.000000
 ---------------------------------------------------------------------
                    Distance matrix (angstroms):
                    1          2          3
     1  S    0.000000
     2  O    1.404326   0.000000
     3  O    1.404326   2.631987   0.000000
 Symmetry turned off by external request.
 Stoichiometry    O2S
 Framework group  C2V[C2(S),SGV(O2)]
 Deg. of freedom     2
 Full point group                 C2V     NOp   4
 Rotational constants (GHZ):         131.5271725           9.1221656           8.5305247
 Standard basis: VSTO-6G (5D, 7F)
    17 basis functions,   108 primitive gaussians,    18 cartesian basis functions
     9 alpha electrons        9 beta electrons
       nuclear repulsion energy        54.2430720695 Hartrees.
 Integral buffers will be    131072 words long.
 Regular integral format.
 Two-electron integral symmetry is turned off.
 Do NDO integrals.
 One-electron integrals computed using PRISM.
 NBasis=    17 RedAO= F EigKep=  0.00D+00  NBF=    17
 NBsUse=    17 1.00D-04 EigRej=  0.00D+00 NBFU=    17
 Initial guess from the checkpoint file:  "C:\Users\al6323\OneDrive - Imperial College London\Desktop\TSR20251115\SO2_opt+freq.chk"
 B after Tr=     0.000000    0.000000    0.000000
         Rot=    1.000000    0.000000    0.000000    0.000000 Ang=   0.00 deg.
 Keep J ints in memory in canonical form, NReq=1848882.
 Overlap will be assumed to be unity.
 Requested convergence on RMS density matrix=1.00D-08 within  32 cycles.
 Requested convergence on MAX density matrix=1.00D-06.
 Requested convergence on             energy=1.00D-06.
 No special actions if energy rises.
 SCF Done:  E(RPM6) = -0.100138627457     A.U. after    2 cycles
            NFock=  1  Conv=0.24D-09     -V/T= 0.9978
 QCSCF skips out because SCF is already converged.
 Range of M.O.s used for correlation:     1    17
 NBasis=    17 NAE=     9 NBE=     9 NFC=     0 NFV=     0
 NROrb=     17 NOA=     9 NOB=     9 NVA=     8 NVB=     8
 Symmetrizing basis deriv contribution to polar:
 IMax=3 JMax=2 DiffMx= 0.00D+00
 G2DrvN: will do     4 centers at a time, making    1 passes.
 Calling FoFCou, ICntrl=  3107 FMM=F I1Cent=   0 AccDes= 0.00D+00.
 End of G2Drv F.D. properties file   721 does not exist.
 End of G2Drv F.D. properties file   722 does not exist.
 End of G2Drv F.D. properties file   788 does not exist.
          IDoAtm=111
          Differentiating once with respect to electric field.
                with respect to dipole field.
          Differentiating once with respect to nuclear coordinates.
          Electric field/nuclear overlap derivatives assumed to be zero.
 Keep J ints in memory in canonical form, NReq=1849389.
          There are    12 degrees of freedom in the 1st order CPHF.  IDoFFX=5 NUNeed=    12.
 LinEq1:  Iter=  0 NonCon=    12 RMS=6.61D-01 Max=3.27D+00 NDo=    12
 AX will form    12 AO Fock derivatives at one time.
 LinEq1:  Iter=  1 NonCon=    12 RMS=1.53D-01 Max=1.05D+00 NDo=    12
 LinEq1:  Iter=  2 NonCon=    12 RMS=2.33D-02 Max=1.18D-01 NDo=    12
 LinEq1:  Iter=  3 NonCon=    12 RMS=4.49D-03 Max=2.06D-02 NDo=    12
 LinEq1:  Iter=  4 NonCon=    12 RMS=6.10D-04 Max=3.21D-03 NDo=    12
 LinEq1:  Iter=  5 NonCon=    12 RMS=1.33D-04 Max=5.50D-04 NDo=    12
 LinEq1:  Iter=  6 NonCon=    12 RMS=5.04D-05 Max=2.06D-04 NDo=    12
 LinEq1:  Iter=  7 NonCon=    12 RMS=6.34D-06 Max=3.22D-05 NDo=    12
 LinEq1:  Iter=  8 NonCon=     8 RMS=6.83D-07 Max=2.14D-06 NDo=    12
 LinEq1:  Iter=  9 NonCon=     7 RMS=1.12D-07 Max=5.16D-07 NDo=     8
 LinEq1:  Iter= 10 NonCon=     1 RMS=1.54D-08 Max=4.72D-08 NDo=     7
 LinEq1:  Iter= 11 NonCon=     0 RMS=1.61D-09 Max=6.73D-09 NDo=     1
 Linear equations converged to 1.000D-08 1.000D-07 after    11 iterations.
 Isotropic polarizability for W=    0.000000       23.85 Bohr**3.
 End of Minotr F.D. properties file   721 does not exist.
 End of Minotr F.D. properties file   722 does not exist.
 End of Minotr F.D. properties file   788 does not exist.

 **********************************************************************

            Population analysis using the SCF Density.

 **********************************************************************

 Alpha  occ. eigenvalues --   -1.19678  -1.12965  -0.74431  -0.56855  -0.55394
 Alpha  occ. eigenvalues --   -0.54778  -0.44871  -0.44785  -0.36034
 Alpha virt. eigenvalues --   -0.02178   0.00739   0.10697   0.30008   0.30764
 Alpha virt. eigenvalues --    0.31068   0.32313   0.34854
          Condensed to atoms (all electrons):
               1          2          3
     1  S    4.870477   0.000000   0.000000
     2  O    0.000000   6.564762   0.000000
     3  O    0.000000   0.000000   6.564762
 Mulliken charges:
               1
     1  S    1.129523
     2  O   -0.564762
     3  O   -0.564762
 Sum of Mulliken charges =   0.00000
 Mulliken charges with hydrogens summed into heavy atoms:
               1
     1  S    1.129523
     2  O   -0.564762
     3  O   -0.564762
 APT charges:
               1
     1  S    1.201185
     2  O   -0.600301
     3  O   -0.600883
 Sum of APT charges =   0.00000
 APT charges with hydrogens summed into heavy atoms:
               1
     1  S    1.201185
     2  O   -0.600301
     3  O   -0.600883
 Charge=              0.0000 electrons
 Dipole moment (field-independent basis, Debye):
    X=             -1.3761    Y=              0.0040    Z=              0.0000  Tot=              1.3761
 N-N= 5.424307206948D+01 E-N=-5.026680334297D+01  KE=-4.642380063325D+01
  Exact polarizability:      11.359      -0.773      52.485       0.000       0.000       7.693
 Approx polarizability:       9.994      -0.984      60.428       0.000       0.000       6.320
 Calling FoFJK, ICntrl=    100127 FMM=F ISym2X=0 I1Cent= 0 IOpClX= 0 NMat=1 NMatS=1 NMatT=0.
 Full mass-weighted force constant matrix:
 Low frequencies ---   -0.0329   -0.0186   -0.0003    1.2112    1.2142    1.7629
 Low frequencies ---  224.4378  992.7188 1284.2852
 Diagonal vibrational polarizability:
       30.5571385       3.3510294       0.0000000
 Harmonic frequencies (cm**-1), IR intensities (KM/Mole), Raman scattering
 activities (A**4/AMU), depolarization ratios for plane and unpolarized
 incident light, reduced masses (AMU), force constants (mDyne/A),
 and normal coordinates:
                      1                      2                      3
                      A                      A                      A
 Frequencies --    224.4378               992.7188              1284.2852
 Red. masses --     20.3586                16.5852                20.8735
 Frc consts  --      0.6042                 9.6299                20.2847
 IR Inten    --     56.9118                 5.7017               205.1731
  Atom  AN      X      Y      Z        X      Y      Z        X      Y      Z
     1  16     0.52   0.01   0.00    -0.19   0.00   0.00    -0.01   0.55   0.00
     2   8    -0.53   0.29   0.00     0.18   0.67   0.00    -0.19  -0.56   0.00
     3   8    -0.52  -0.31   0.00     0.21  -0.66   0.00     0.22  -0.55   0.00

 -------------------
 - Thermochemistry -
 -------------------
 Temperature   298.150 Kelvin.  Pressure   1.00000 Atm.
 Atom     1 has atomic number 16 and mass  31.97207
 Atom     2 has atomic number  8 and mass  15.99491
 Atom     3 has atomic number  8 and mass  15.99491
 Molecular mass:    63.96190 amu.
 Principal axes and moments of inertia in atomic units:
                           1         2         3
     Eigenvalues --    13.72143 197.84131 211.56274
           X           -0.02244   0.99975   0.00000
           Y            0.99975   0.02244   0.00000
           Z            0.00000   0.00000   1.00000
 This molecule is an asymmetric top.
 Rotational symmetry number  2.
 Rotational temperatures (Kelvin)      6.31231     0.43779     0.40940
 Rotational constants (GHZ):         131.52717     9.12217     8.53052
 Zero-point vibrational energy      14961.9 (Joules/Mol)
                                    3.57599 (Kcal/Mol)
 Warning -- explicit consideration of   1 degrees of freedom as
           vibrations may cause significant error
 Vibrational temperatures:    322.92  1428.30  1847.80
          (Kelvin)
 
 Zero-point correction=                           0.005699 (Hartree/Particle)
 Thermal correction to Energy=                    0.009104
 Thermal correction to Enthalpy=                  0.010049
 Thermal correction to Gibbs Free Energy=        -0.018476
 Sum of electronic and zero-point Energies=             -0.094440
 Sum of electronic and thermal Energies=                -0.091034
 Sum of electronic and thermal Enthalpies=              -0.090090
 Sum of electronic and thermal Free Energies=           -0.118615
 
                     E (Thermal)             CV                S
                      KCal/Mol        Cal/Mol-Kelvin    Cal/Mol-Kelvin
 Total                    5.713              8.307             60.036
 Electronic               0.000              0.000              0.000
 Translational            0.889              2.981             38.386
 Rotational               0.889              2.981             19.602
 Vibrational              3.936              2.345              2.048
 Vibration     1          0.649              1.804              1.923
                       Q            Log10(Q)             Ln(Q)
 Total Bot       0.315155D+09          8.498525         19.568576
 Total V=0       0.131748D+12         11.119744         25.604157
 Vib (Bot)       0.365422D-02         -2.437205         -5.611871
 Vib (Bot)    1  0.879675D+00         -0.055678         -0.128202
 Vib (V=0)       0.152762D+01          0.184015          0.423709
 Vib (V=0)    1  0.151184D+01          0.179507          0.413330
 Electronic      0.100000D+01          0.000000          0.000000
 Translational   0.201065D+08          7.303336         16.816552
 Rotational      0.428937D+04          3.632393          8.363895
 -------------------------------------------------------------------
 Center     Atomic                   Forces (Hartrees/Bohr)
 Number     Number              X              Y              Z
 -------------------------------------------------------------------
      1       16           0.000001741    0.000000038    0.000000000
      2        8          -0.000000821   -0.000002239    0.000000000
      3        8          -0.000000921    0.000002201    0.000000000
 -------------------------------------------------------------------
 Cartesian Forces:  Max     0.000002239 RMS     0.000001265

 GradGradGradGradGradGradGradGradGradGradGradGradGradGradGradGradGradGrad
 Berny optimization.
 Search for a local minimum.
 Step number   1 out of a maximum of    2
 All quantities printed in internal units (Hartrees-Bohrs-Radians)
 Second derivative matrix not updated -- analytic derivatives used.
 The second derivative matrix:
                          X1        Y1        Z1        X2        Y2
           X1           0.11148
           Y1          -0.01845   0.93296
           Z1           0.00000   0.00000   0.00000
           X2          -0.04870  -0.16445   0.00000   0.05332
           Y2          -0.13047  -0.47352   0.00000   0.14701   0.49812
           Z2           0.00000   0.00000   0.00000   0.00000   0.00000
           X3          -0.06278   0.18290   0.00000  -0.00462  -0.01654
           Y3           0.14892  -0.45944   0.00000   0.01744  -0.02461
           Z3           0.00000   0.00000   0.00000   0.00000   0.00000
                          Z2        X3        Y3        Z3
           Z2           0.00000
           X3           0.00000   0.06740
           Y3           0.00000  -0.16636   0.48405
           Z3           0.00000   0.00000   0.00000   0.00000
 ITU=  0
     Eigenvalues ---    0.04262   0.63989   1.46481
 Angle between quadratic step and forces=  54.72 degrees.
 Linear search not attempted -- first point.
 B after Tr=     0.000000    0.000000    0.000000
         Rot=    1.000000    0.000000    0.000000    0.000000 Ang=   0.00 deg.
 Variable       Old X    -DE/DX   Delta X   Delta X   Delta X     New X
                                 (Linear)    (Quad)   (Total)
    X1       -2.65765   0.00000   0.00000   0.00001   0.00001  -2.65764
    Y1       -0.65413   0.00000   0.00000   0.00000   0.00000  -0.65413
    Z1        0.00000   0.00000   0.00000   0.00000   0.00000   0.00000
    X2       -1.78735   0.00000   0.00000  -0.00001  -0.00001  -1.78736
    Y2        1.85290   0.00000   0.00000   0.00000   0.00000   1.85290
    Z2        0.00000   0.00000   0.00000   0.00000   0.00000   0.00000
    X3       -1.67574   0.00000   0.00000  -0.00001  -0.00001  -1.67574
    Y3       -3.11958   0.00000   0.00000   0.00000   0.00000  -3.11958
    Z3        0.00000   0.00000   0.00000   0.00000   0.00000   0.00000
         Item               Value     Threshold  Converged?
 Maximum Force            0.000002     0.000015     YES
 RMS     Force            0.000001     0.000010     YES
 Maximum Displacement     0.000010     0.000060     YES
 RMS     Displacement     0.000004     0.000040     YES
 Predicted change in Energy=-1.365909D-11
 Optimization completed.
    -- Stationary point found.
 GradGradGradGradGradGradGradGradGradGradGradGradGradGradGradGradGradGrad


 ----------------------------------------------------------------------

 Electric dipole moment (input orientation):
 (Debye = 10**-18 statcoulomb cm , SI units = C m)
                  (au)            (Debye)         (10**-30 SI)
   Tot        0.541385D+00      0.137606D+01      0.459005D+01
   x         -0.541383D+00     -0.137606D+01     -0.459003D+01
   y          0.157367D-02      0.399988D-02      0.133422D-01
   z          0.000000D+00      0.000000D+00      0.000000D+00

 Dipole polarizability, Alpha (input orientation).
 (esu units = cm**3 , SI units = C**2 m**2 J**-1)
 Alpha(0;0):
               (au)            (10**-24 esu)      (10**-40 SI)
   iso        0.238459D+02      0.353360D+01      0.393166D+01
   aniso      0.430967D+02      0.638627D+01      0.710568D+01
   xx         0.113592D+02      0.168326D+01      0.187288D+01
   yx        -0.772774D+00     -0.114513D+00     -0.127413D+00
   yy         0.524850D+02      0.777748D+01      0.865361D+01
   zx         0.000000D+00      0.000000D+00      0.000000D+00
   zy         0.000000D+00      0.000000D+00      0.000000D+00
   zz         0.769341D+01      0.114005D+01      0.126847D+01

 First dipole hyperpolarizability, Beta (input orientation).
 ||, _|_  parallel and perpendicular components, (z) with respect to z axis,
 vector components x,y,z.  Values do not include the 1/n! factor of 1/2.
 (esu units = statvolt**-1 cm**4 , SI units = C**3 m**3 J**-2)
 Beta(0;0,0):
               (au)            (10**-30 esu)      (10**-50 SI)
   || (z)     0.000000D+00      0.000000D+00      0.000000D+00
   _|_(z)     0.000000D+00      0.000000D+00      0.000000D+00
   x         -0.126191D+03     -0.109019D+01     -0.404615D+00
   y          0.104634D+02      0.903958D-01      0.335495D-01
   z          0.000000D+00      0.000000D+00      0.000000D+00
   ||         0.253249D+02      0.218787D+00      0.812007D-01
   xxx        0.265295D+02      0.229194D+00      0.850632D-01
   xxy        0.406661D+01      0.351323D-01      0.130390D-01
   yxy       -0.761686D+02     -0.658038D+00     -0.244224D+00
   yyy       -0.874864D+00     -0.755815D-02     -0.280513D-02
   xxz        0.000000D+00      0.000000D+00      0.000000D+00
   yxz        0.000000D+00      0.000000D+00      0.000000D+00
   yyz        0.000000D+00      0.000000D+00      0.000000D+00
   zxz        0.757535D+01      0.654451D-01      0.242893D-01
   zyz        0.296059D+00      0.255772D-02      0.949273D-03
   zzz        0.000000D+00      0.000000D+00      0.000000D+00

 ----------------------------------------------------------------------

 Dipole orientation:
    16         -0.00192383         -0.66184643          2.65573813
     8          0.00537081          1.84769048          1.79273274
     8         -0.00908197         -3.12442421          1.66666456

 Electric dipole moment (dipole orientation):
 (Debye = 10**-18 statcoulomb cm , SI units = C m)
                  (au)            (Debye)         (10**-30 SI)
   Tot        0.541385D+00      0.137606D+01      0.459005D+01
   x          0.000000D+00      0.000000D+00      0.000000D+00
   y          0.000000D+00      0.000000D+00      0.000000D+00
   z          0.541385D+00      0.137606D+01      0.459005D+01

 Dipole polarizability, Alpha (dipole orientation).
 (esu units = cm**3 , SI units = C**2 m**2 J**-1)
 Alpha(0;0):
               (au)            (10**-24 esu)      (10**-40 SI)
   iso        0.238459D+02      0.353360D+01      0.393166D+01
   aniso      0.430967D+02      0.638627D+01      0.710568D+01
   xx         0.769379D+01      0.114010D+01      0.126853D+01
   yx         0.130184D+00      0.192912D-01      0.214644D-01
   yy         0.524798D+02      0.777671D+01      0.865275D+01
   zx         0.259371D-02      0.384348D-03      0.427644D-03
   zy         0.892299D+00      0.132225D+00      0.147120D+00
   zz         0.113641D+02      0.168398D+01      0.187368D+01

 First dipole hyperpolarizability, Beta (dipole orientation).
 ||, _|_  parallel and perpendicular components, (z) with respect to z axis,
 vector components x,y,z.  Values do not include the 1/n! factor of 1/2.
 (esu units = statvolt**-1 cm**4 , SI units = C**3 m**3 J**-2)
 Beta(0;0,0):
               (au)            (10**-30 esu)      (10**-50 SI)
   || (z)     0.252442D+02      0.218091D+00      0.809422D-01
   _|_(z)     0.841475D+01      0.726969D-01      0.269807D-01
   x          0.293482D-01      0.253546D-03      0.941011D-04
   y          0.100965D+02      0.872261D-01      0.323731D-01
   z          0.126221D+03      0.109045D+01      0.404711D+00
   ||         0.253249D+02      0.218787D+00      0.812007D-01
   xxx        0.277366D-02      0.239623D-04      0.889336D-05
   xxy        0.318055D+00      0.274775D-02      0.101980D-02
   yxy       -0.632245D-02     -0.546210D-04     -0.202721D-04
   yyy       -0.153893D+01     -0.132951D-01     -0.493436D-02
   xxz       -0.757375D+01     -0.654313D-01     -0.242842D-01
   yxz        0.243336D+00      0.210224D-02      0.780224D-03
   yyz        0.761393D+02      0.657784D+00      0.244130D+00
   zxz        0.133315D-01      0.115174D-03      0.427457D-04
   zyz        0.458638D+01      0.396227D-01      0.147056D-01
   zzz       -0.264918D+02     -0.228868D+00     -0.849422D-01

 ----------------------------------------------------------------------
 Unable to Open any file for archive entry.
 1|1|UNPC-SKCH-134-020|Freq|RPM6|ZDO|O2S1|AL6323|15-Nov-2025|0||#N Geom
 =AllCheck Guess=TCheck SCRF=Check GenChk RPM6/ZDO Freq||Title Card Req
 uired||0,1|S,-1.4063682101,-0.346149024,0.|O,-0.9458271978,0.980513257
 6,0.|O,-0.8867631521,-1.6508104437,0.||Version=EM64W-G16RevC.01|HF=-0.
 1001386|RMSD=2.417e-010|RMSF=1.265e-006|ZeroPoint=0.0056987|Thermal=0.
 0091045|ETot=-0.0910341|HTot=-0.0900899|GTot=-0.118615|Dipole=-0.54138
 26,0.0015737,0.|DipoleDeriv=1.0107346,-0.0287738,0.,-0.0184317,1.76849
 6,0.,0.,0.,0.8243233,-0.5014466,-0.3289679,0.,0.0668644,-0.8872962,0.,
 0.,0.,-0.4121603,-0.5092874,0.3577415,0.,-0.0484324,-0.8811999,0.,0.,0
 .,-0.4121603|Polar=11.3592137,-0.7727738,52.4850414,0.,0.,7.6934067|Hy
 perPolar=26.5295047,4.0666104,-76.1686356,-0.8748643,0.,0.,0.,7.575350
 7,0.2960593,0.|PG=C02V [C2(S1),SGV(O2)]|NImag=0||0.11147781,-0.0184487
 8,0.93295566,0.,0.,0.00000184,-0.04870144,-0.16445341,0.,0.05332214,-0
 .13046874,-0.47351541,0.,0.14701221,0.49812129,0.,0.,-0.00000094,0.,0.
 ,0.00000093,-0.06277666,0.18290217,0.,-0.00462057,-0.01654357,0.,0.067
 39740,0.14891733,-0.45944009,0.,0.01744124,-0.02460600,0.,-0.16635845,
 0.48404604,0.,0.,-0.00000094,0.,0.,0.00000003,0.,0.,0.00000093||-0.000
 00174,-0.00000004,0.,0.00000082,0.00000224,0.,0.00000092,-0.00000220,0
 .|||@
 The archive entry for this job was punched.


 THE 2ND LAW OF THERMODYNAMICS HAS THE SAME
 DEGREE OF TRUTH AS THE STATEMENT THAT IF YOU THROW
 A TUMBLERFULL OF WATER INTO THE SEA, YOU CANNOT GET
 THE SAME TUMBLERFULL OF WATER OUT AGAIN.
          - J.C. MAXWELL, LETTER TO LORD RAYLEIGH, DECEMBER 6,1870
 Job cpu time:       0 days  0 hours  0 minutes  5.0 seconds.
 Elapsed time:       0 days  0 hours  0 minutes  3.3 seconds.
 File lengths (MBytes):  RWF=      6 Int=      0 D2E=      0 Chk=      2 Scr=      1
 Normal termination of Gaussian 16 at Sat Nov 15 12:48:08 2025.
