 Default is to use a total of   8 processors:
                                8 via shared-memory
                                1 via Linda
 Entering Link 1 = C:\G16W\l1.exe PID=     21448.
  
 Copyright (c) 1988-2019, Gaussian, Inc.  All Rights Reserved.
  
 This is part of the Gaussian(R) 16 program.  It is based on
 the Gaussian(R) 09 system (copyright 2009, Gaussian, Inc.),
 the Gaussian(R) 03 system (copyright 2003, Gaussian, Inc.),
 the Gaussian(R) 98 system (copyright 1998, Gaussian, Inc.),
 the Gaussian(R) 94 system (copyright 1995, Gaussian, Inc.),
 the Gaussian 92(TM) system (copyright 1992, Gaussian, Inc.),
 the Gaussian 90(TM) system (copyright 1990, Gaussian, Inc.),
 the Gaussian 88(TM) system (copyright 1988, Gaussian, Inc.),
 the Gaussian 86(TM) system (copyright 1986, Carnegie Mellon
 University), and the Gaussian 82(TM) system (copyright 1983,
 Carnegie Mellon University). Gaussian is a federally registered
 trademark of Gaussian, Inc.
  
 This software contains proprietary and confidential information,
 including trade secrets, belonging to Gaussian, Inc.
  
 This software is provided under written license and may be
 used, copied, transmitted, or stored only in accord with that
 written license.
  
 The following legend is applicable only to US Government
 contracts under FAR:
  
                    RESTRICTED RIGHTS LEGEND
  
 Use, reproduction and disclosure by the US Government is
 subject to restrictions as set forth in subparagraphs (a)
 and (c) of the Commercial Computer Software - Restricted
 Rights clause in FAR 52.227-19.
  
 Gaussian, Inc.
 340 Quinnipiac St., Bldg. 40, Wallingford CT 06492
  
  
 ---------------------------------------------------------------
 Warning -- This program may not be used in any manner that
 competes with the business of Gaussian, Inc. or will provide
 assistance to any competitor of Gaussian, Inc.  The licensee
 of this program is prohibited from giving any competitor of
 Gaussian, Inc. access to this program.  By using this program,
 the user acknowledges that Gaussian, Inc. is engaged in the
 business of creating and licensing software in the field of
 computational chemistry and represents and warrants to the
 licensee that it is not a competitor of Gaussian, Inc. and that
 it will not use this program in any manner prohibited above.
 ---------------------------------------------------------------
  

 Cite this work as:
 Gaussian 16, Revision C.01,
 M. J. Frisch, G. W. Trucks, H. B. Schlegel, G. E. Scuseria, 
 M. A. Robb, J. R. Cheeseman, G. Scalmani, V. Barone, 
 G. A. Petersson, H. Nakatsuji, X. Li, M. Caricato, A. V. Marenich, 
 J. Bloino, B. G. Janesko, R. Gomperts, B. Mennucci, H. P. Hratchian, 
 J. V. Ortiz, A. F. Izmaylov, J. L. Sonnenberg, D. Williams-Young, 
 F. Ding, F. Lipparini, F. Egidi, J. Goings, B. Peng, A. Petrone, 
 T. Henderson, D. Ranasinghe, V. G. Zakrzewski, J. Gao, N. Rega, 
 G. Zheng, W. Liang, M. Hada, M. Ehara, K. Toyota, R. Fukuda, 
 J. Hasegawa, M. Ishida, T. Nakajima, Y. Honda, O. Kitao, H. Nakai, 
 T. Vreven, K. Throssell, J. A. Montgomery, Jr., J. E. Peralta, 
 F. Ogliaro, M. J. Bearpark, J. J. Heyd, E. N. Brothers, K. N. Kudin, 
 V. N. Staroverov, T. A. Keith, R. Kobayashi, J. Normand, 
 K. Raghavachari, A. P. Rendell, J. C. Burant, S. S. Iyengar, 
 J. Tomasi, M. Cossi, J. M. Millam, M. Klene, C. Adamo, R. Cammi, 
 J. W. Ochterski, R. L. Martin, K. Morokuma, O. Farkas, 
 J. B. Foresman, and D. J. Fox, Gaussian, Inc., Wallingford CT, 2019.
 
 ******************************************
 Gaussian 16:  EM64W-G16RevC.01 30-May-2019
                14-Nov-2025 
 ******************************************
 %chk=C:\Users\al6323\OneDrive - Imperial College London\Desktop\TSR20251114\TS_e
 ndo_Berny_opt+freq.chk
 Default route: MaxDisk=10GB
 ----------------------------------------------------------------------
 # opt=(calcfc,tight,ts,noeigen) freq rpm6 nosymm geom=connectivity scf
 ----------------------------------------------------------------------
 1/5=1,7=10,10=4,11=1,18=20,26=1,38=1,57=2/1,3;
 2/9=110,12=2,15=1,17=6,18=5,40=1/2;
 3/5=2,25=1,41=3900000,71=2,116=1,140=1/1,2,3;
 4/35=1/1;
 5/5=2,35=1,38=5/2;
 8/6=4,10=90,11=11/1;
 11/6=1,8=1,9=11,15=111,16=1,31=1/1,2,10;
 10/6=1,13=1,31=1/2;
 6/7=2,8=2,9=2,10=2,28=1/1;
 7/10=1,25=1,30=1/1,2,3,16;
 1/5=1,7=10,10=4,11=1,18=20,26=1/3(2);
 2/9=110,15=1/2;
 99//99;
 2/9=110,15=1/2;
 3/5=2,25=1,41=3900000,71=1,116=1,135=20/1,2,3;
 4/5=5,16=3,35=1/1;
 5/5=2,35=1,38=5/2;
 7/30=1/1,2,3,16;
 1/5=1,7=10,11=1,18=20,26=1/3(-5);
 2/9=110,15=1/2;
 6/7=2,8=2,9=2,10=2,19=2,28=1/1;
 99/9=1/99;
 -------------------
 Title Card Required
 -------------------
 Symbolic Z-matrix:
 Charge =  0 Multiplicity = 1
 C                    -5.61461  -1.65686   0.24856 
 C                    -4.28401  -1.75441  -0.23749 
 C                    -3.63045  -0.56453  -0.42444 
 C                    -4.25233   0.69998  -0.14853 
 C                    -5.52847   0.79792   0.33182 
 C                    -6.21383  -0.43188   0.52317 
 H                    -1.89408  -0.2305   -1.79446 
 H                    -6.17351  -2.57799   0.41441 
 H                    -3.82901  -2.72005  -0.43016 
 C                    -2.34039   0.05212  -0.84983 
 C                    -3.01469   1.46733  -0.57333 
 H                    -6.00497   1.74579   0.56338 
 H                    -7.23487  -0.40434   0.90133 
 H                    -3.09135   2.25512  -1.32118 
 O                    -1.83798   2.04407   0.93753 
 S                    -0.84033   0.54247   0.95832 
 O                    -1.06444  -0.30714   2.10889 
 

 GradGradGradGradGradGradGradGradGradGradGradGradGradGradGradGradGradGrad
 Berny optimization.
 Initialization pass.
                           ----------------------------
                           !    Initial Parameters    !
                           ! (Angstroms and Degrees)  !
 --------------------------                            --------------------------
 ! Name  Definition              Value          Derivative Info.                !
 --------------------------------------------------------------------------------
 ! R1    R(1,2)                  1.42           calculate D2E/DX2 analytically  !
 ! R2    R(1,6)                  1.3911         calculate D2E/DX2 analytically  !
 ! R3    R(1,8)                  1.0901         calculate D2E/DX2 analytically  !
 ! R4    R(2,3)                  1.3704         calculate D2E/DX2 analytically  !
 ! R5    R(2,9)                  1.0847         calculate D2E/DX2 analytically  !
 ! R6    R(3,4)                  1.4359         calculate D2E/DX2 analytically  !
 ! R7    R(3,10)                 1.4918         calculate D2E/DX2 analytically  !
 ! R8    R(4,5)                  1.3671         calculate D2E/DX2 analytically  !
 ! R9    R(4,11)                 1.5169         calculate D2E/DX2 analytically  !
 ! R10   R(5,6)                  1.4208         calculate D2E/DX2 analytically  !
 ! R11   R(5,12)                 1.0859         calculate D2E/DX2 analytically  !
 ! R12   R(6,13)                 1.0892         calculate D2E/DX2 analytically  !
 ! R13   R(7,10)                 1.0823         calculate D2E/DX2 analytically  !
 ! R14   R(10,16)                2.4            calculate D2E/DX2 analytically  !
 ! R15   R(11,14)                1.0889         calculate D2E/DX2 analytically  !
 ! R16   R(11,15)                2.0            calculate D2E/DX2 analytically  !
 ! R17   R(15,16)                1.8029         calculate D2E/DX2 analytically  !
 ! R18   R(16,17)                1.4477         calculate D2E/DX2 analytically  !
 ! A1    A(2,1,6)              122.1223         calculate D2E/DX2 analytically  !
 ! A2    A(2,1,8)              118.3244         calculate D2E/DX2 analytically  !
 ! A3    A(6,1,8)              119.552          calculate D2E/DX2 analytically  !
 ! A4    A(1,2,3)              115.7188         calculate D2E/DX2 analytically  !
 ! A5    A(1,2,9)              120.9994         calculate D2E/DX2 analytically  !
 ! A6    A(3,2,9)              123.2776         calculate D2E/DX2 analytically  !
 ! A7    A(2,3,4)              122.1329         calculate D2E/DX2 analytically  !
 ! A8    A(2,3,10)             144.1197         calculate D2E/DX2 analytically  !
 ! A9    A(4,3,10)              93.744          calculate D2E/DX2 analytically  !
 ! A10   A(3,4,5)              122.3368         calculate D2E/DX2 analytically  !
 ! A11   A(3,4,11)              92.1957         calculate D2E/DX2 analytically  !
 ! A12   A(5,4,11)             145.4654         calculate D2E/DX2 analytically  !
 ! A13   A(4,5,6)              115.8231         calculate D2E/DX2 analytically  !
 ! A14   A(4,5,12)             123.168          calculate D2E/DX2 analytically  !
 ! A15   A(6,5,12)             121.0082         calculate D2E/DX2 analytically  !
 ! A16   A(1,6,5)              121.8598         calculate D2E/DX2 analytically  !
 ! A17   A(1,6,13)             119.6451         calculate D2E/DX2 analytically  !
 ! A18   A(5,6,13)             118.4941         calculate D2E/DX2 analytically  !
 ! A19   A(3,10,7)             119.8374         calculate D2E/DX2 analytically  !
 ! A20   A(3,10,16)            114.2126         calculate D2E/DX2 analytically  !
 ! A21   A(7,10,16)            116.9472         calculate D2E/DX2 analytically  !
 ! A22   A(4,11,14)            120.0566         calculate D2E/DX2 analytically  !
 ! A23   A(4,11,15)            114.479          calculate D2E/DX2 analytically  !
 ! A24   A(14,11,15)           110.5858         calculate D2E/DX2 analytically  !
 ! A25   A(11,15,16)            95.3996         calculate D2E/DX2 analytically  !
 ! A26   A(10,16,15)            79.3753         calculate D2E/DX2 analytically  !
 ! A27   A(10,16,17)           112.4639         calculate D2E/DX2 analytically  !
 ! A28   A(15,16,17)           114.3487         calculate D2E/DX2 analytically  !
 ! D1    D(6,1,2,3)             -0.2885         calculate D2E/DX2 analytically  !
 ! D2    D(6,1,2,9)            178.985          calculate D2E/DX2 analytically  !
 ! D3    D(8,1,2,3)           -179.8908         calculate D2E/DX2 analytically  !
 ! D4    D(8,1,2,9)             -0.6173         calculate D2E/DX2 analytically  !
 ! D5    D(2,1,6,5)              0.0624         calculate D2E/DX2 analytically  !
 ! D6    D(2,1,6,13)          -179.5782         calculate D2E/DX2 analytically  !
 ! D7    D(8,1,6,5)            179.66           calculate D2E/DX2 analytically  !
 ! D8    D(8,1,6,13)             0.0193         calculate D2E/DX2 analytically  !
 ! D9    D(1,2,3,4)             -0.1002         calculate D2E/DX2 analytically  !
 ! D10   D(1,2,3,10)           179.0093         calculate D2E/DX2 analytically  !
 ! D11   D(9,2,3,4)           -179.3552         calculate D2E/DX2 analytically  !
 ! D12   D(9,2,3,10)            -0.2458         calculate D2E/DX2 analytically  !
 ! D13   D(2,3,4,5)              0.7604         calculate D2E/DX2 analytically  !
 ! D14   D(2,3,4,11)          -179.6442         calculate D2E/DX2 analytically  !
 ! D15   D(10,3,4,5)          -178.7166         calculate D2E/DX2 analytically  !
 ! D16   D(10,3,4,11)            0.8789         calculate D2E/DX2 analytically  !
 ! D17   D(2,3,10,7)            51.8384         calculate D2E/DX2 analytically  !
 ! D18   D(2,3,10,16)          -94.3361         calculate D2E/DX2 analytically  !
 ! D19   D(4,3,10,7)          -128.9174         calculate D2E/DX2 analytically  !
 ! D20   D(4,3,10,16)           84.9081         calculate D2E/DX2 analytically  !
 ! D21   D(3,4,5,6)             -0.9462         calculate D2E/DX2 analytically  !
 ! D22   D(3,4,5,12)           178.7675         calculate D2E/DX2 analytically  !
 ! D23   D(11,4,5,6)           179.7669         calculate D2E/DX2 analytically  !
 ! D24   D(11,4,5,12)           -0.5195         calculate D2E/DX2 analytically  !
 ! D25   D(3,4,11,14)          126.663          calculate D2E/DX2 analytically  !
 ! D26   D(3,4,11,15)          -98.1172         calculate D2E/DX2 analytically  !
 ! D27   D(5,4,11,14)          -53.9399         calculate D2E/DX2 analytically  !
 ! D28   D(5,4,11,15)           81.2799         calculate D2E/DX2 analytically  !
 ! D29   D(4,5,6,1)              0.5536         calculate D2E/DX2 analytically  !
 ! D30   D(4,5,6,13)          -179.8018         calculate D2E/DX2 analytically  !
 ! D31   D(12,5,6,1)          -179.1667         calculate D2E/DX2 analytically  !
 ! D32   D(12,5,6,13)            0.4779         calculate D2E/DX2 analytically  !
 ! D33   D(3,10,16,15)         -86.4605         calculate D2E/DX2 analytically  !
 ! D34   D(3,10,16,17)          25.6479         calculate D2E/DX2 analytically  !
 ! D35   D(7,10,16,15)         126.3381         calculate D2E/DX2 analytically  !
 ! D36   D(7,10,16,17)        -121.5535         calculate D2E/DX2 analytically  !
 ! D37   D(4,11,15,16)          89.2371         calculate D2E/DX2 analytically  !
 ! D38   D(14,11,15,16)       -131.3991         calculate D2E/DX2 analytically  !
 ! D39   D(11,15,16,10)          0.5885         calculate D2E/DX2 analytically  !
 ! D40   D(11,15,16,17)       -109.3998         calculate D2E/DX2 analytically  !
 --------------------------------------------------------------------------------
 Trust Radius=3.00D-01 FncErr=1.00D-07 GrdErr=1.00D-07 EigMax=2.50D+02 EigMin=1.00D-04
 Number of steps in this run=     96 maximum allowed number of steps=    102.
 Search for a saddle point of order  1.
 GradGradGradGradGradGradGradGradGradGradGradGradGradGradGradGradGradGrad

                          Input orientation:                          
 ---------------------------------------------------------------------
 Center     Atomic      Atomic             Coordinates (Angstroms)
 Number     Number       Type             X           Y           Z
 ---------------------------------------------------------------------
      1          6           0       -5.614610   -1.656864    0.248556
      2          6           0       -4.284007   -1.754415   -0.237493
      3          6           0       -3.630450   -0.564531   -0.424437
      4          6           0       -4.252333    0.699978   -0.148535
      5          6           0       -5.528472    0.797920    0.331823
      6          6           0       -6.213829   -0.431877    0.523172
      7          1           0       -1.894080   -0.230501   -1.794461
      8          1           0       -6.173510   -2.577993    0.414406
      9          1           0       -3.829006   -2.720052   -0.430157
     10          6           0       -2.340389    0.052119   -0.849827
     11          6           0       -3.014693    1.467330   -0.573334
     12          1           0       -6.004966    1.745787    0.563384
     13          1           0       -7.234875   -0.404336    0.901330
     14          1           0       -3.091352    2.255119   -1.321185
     15          8           0       -1.837979    2.044071    0.937531
     16         16           0       -0.840333    0.542472    0.958317
     17          8           0       -1.064436   -0.307144    2.108887
 ---------------------------------------------------------------------
                    Distance matrix (angstroms):
                    1          2          3          4          5
     1  C    0.000000
     2  C    1.419953   0.000000
     3  C    2.362838   1.370368   0.000000
     4  C    2.751033   2.456209   1.435912   0.000000
     5  C    2.457706   2.896071   2.455746   1.367064   0.000000
     6  C    1.391068   2.460068   2.754888   2.362149   1.420820
     7  H    4.477809   3.233915   2.236855   3.022619   4.334459
     8  H    1.090117   2.161823   3.350350   3.840953   3.437977
     9  H    2.186184   1.084712   2.164655   3.457618   3.980568
    10  C    3.853257   2.723264   1.491801   2.137069   3.480860
    11  C    4.146765   3.479020   2.128328   1.516917   2.754361
    12  H    3.439408   3.981773   3.457121   2.161542   1.085872
    13  H    2.149464   3.439078   3.843852   3.349220   2.163693
    14  H    4.912691   4.321247   3.007525   2.267477   3.285638
    15  O    5.332405   4.668214   3.445680   2.969045   3.942019
    16  S    5.304203   4.308659   3.304878   3.590498   4.736708
    17  O    5.097712   4.238600   3.615025   4.033973   4.930187
                    6          7          8          9         10
     6  C    0.000000
     7  H    4.906343   0.000000
     8  H    2.149249   5.357549   0.000000
     9  H    3.439762   3.435568   2.496030   0.000000
    10  C    4.137984   1.082312   4.817530   3.174435   0.000000
    11  C    3.878631   2.372668   5.226700   4.268228   1.591841
    12  H    2.188026   5.134640   4.329627   5.066127   4.277242
    13  H    1.089172   5.985114   2.467463   4.328433   5.218323
    14  H    4.513475   2.799242   5.989236   5.107875   2.374728
    15  O    5.044806   3.555363   6.358771   5.341500   2.723038
    16  S    5.478428   3.047238   6.202897   4.637250   2.400000
    17  O    5.389462   3.991279   5.842146   4.462255   3.242085
                   11         12         13         14         15
    11  C    0.000000
    12  H    3.211137   0.000000
    13  H    4.846411   2.499982   0.000000
    14  H    1.088930   3.507159   5.401949   0.000000
    15  O    2.000000   4.194370   5.926423   2.591772   0.000000
    16  S    2.815877   5.317648   6.464508   3.632682   1.802923
    17  O    3.761193   5.568837   6.288240   4.736980   2.738367
                   16         17
    16  S    0.000000
    17  O    1.447716   0.000000
 Symmetry turned off by external request.
 Stoichiometry    C8H6O2S
 Framework group  C1[X(C8H6O2S)]
 Deg. of freedom    45
 Full point group                 C1      NOp   1
 Rotational constants (GHZ):           1.9483656           0.6677433           0.6032708
 Standard basis: VSTO-6G (5D, 7F)
    55 basis functions,   336 primitive gaussians,    56 cartesian basis functions
    28 alpha electrons       28 beta electrons
       nuclear repulsion energy       315.6581452519 Hartrees.
 Integral buffers will be    131072 words long.
 Regular integral format.
 Two-electron integral symmetry is turned off.
 Do NDO integrals.
 One-electron integrals computed using PRISM.
 NBasis=    55 RedAO= F EigKep=  0.00D+00  NBF=    55
 NBsUse=    55 1.00D-04 EigRej=  0.00D+00 NBFU=    55
 Nonelectrostatic core Hamiltonian diagonalized for initial guess.
 Keep J ints in memory in canonical form, NReq=1858957.
 Overlap will be assumed to be unity.
 Requested convergence on RMS density matrix=1.00D-08 within 128 cycles.
 Requested convergence on MAX density matrix=1.00D-06.
 Requested convergence on             energy=1.00D-06.
 No special actions if energy rises.
 SCF Done:  E(RPM6) =  0.143232468037     A.U. after   24 cycles
            NFock= 23  Conv=0.66D-08     -V/T= 1.0013
 Range of M.O.s used for correlation:     1    55
 NBasis=    55 NAE=    28 NBE=    28 NFC=     0 NFV=     0
 NROrb=     55 NOA=    28 NOB=    28 NVA=    27 NVB=    27
 Symmetrizing basis deriv contribution to polar:
 IMax=3 JMax=2 DiffMx= 0.00D+00
 G2DrvN: will do    18 centers at a time, making    1 passes.
 Calling FoFCou, ICntrl=  3107 FMM=F I1Cent=   0 AccDes= 0.00D+00.
 End of G2Drv F.D. properties file   721 does not exist.
 End of G2Drv F.D. properties file   722 does not exist.
 End of G2Drv F.D. properties file   788 does not exist.
          IDoAtm=11111111111111111
          Differentiating once with respect to nuclear coordinates.
          Electric field/nuclear overlap derivatives assumed to be zero.
 Keep J ints in memory in canonical form, NReq=1860754.
          There are    54 degrees of freedom in the 1st order CPHF.  IDoFFX=5 NUNeed=    54.
 LinEq1:  Iter=  0 NonCon=    51 RMS=1.24D-02 Max=1.09D-01 NDo=    51
 AX will form    54 AO Fock derivatives at one time.
 LinEq1:  Iter=  1 NonCon=    51 RMS=4.87D-03 Max=3.86D-02 NDo=    54
 LinEq1:  Iter=  2 NonCon=    51 RMS=1.12D-03 Max=1.05D-02 NDo=    54
 LinEq1:  Iter=  3 NonCon=    51 RMS=2.92D-04 Max=4.29D-03 NDo=    54
 LinEq1:  Iter=  4 NonCon=    51 RMS=9.76D-05 Max=6.36D-04 NDo=    54
 LinEq1:  Iter=  5 NonCon=    51 RMS=3.04D-05 Max=2.74D-04 NDo=    54
 LinEq1:  Iter=  6 NonCon=    51 RMS=8.58D-06 Max=8.94D-05 NDo=    54
 LinEq1:  Iter=  7 NonCon=    51 RMS=2.39D-06 Max=2.27D-05 NDo=    54
 LinEq1:  Iter=  8 NonCon=    51 RMS=6.57D-07 Max=5.89D-06 NDo=    54
 LinEq1:  Iter=  9 NonCon=    42 RMS=2.18D-07 Max=2.20D-06 NDo=    54
 LinEq1:  Iter= 10 NonCon=    29 RMS=5.49D-08 Max=4.61D-07 NDo=    54
 LinEq1:  Iter= 11 NonCon=     3 RMS=1.15D-08 Max=9.55D-08 NDo=    29
 LinEq1:  Iter= 12 NonCon=     0 RMS=2.37D-09 Max=2.12D-08 NDo=     3
 Linear equations converged to 1.000D-08 1.000D-07 after    12 iterations.
 End of Minotr F.D. properties file   721 does not exist.
 End of Minotr F.D. properties file   722 does not exist.
 End of Minotr F.D. properties file   788 does not exist.

 **********************************************************************

            Population analysis using the SCF Density.

 **********************************************************************

 Alpha  occ. eigenvalues --   -1.15416  -1.12601  -1.04702  -0.96542  -0.93606
 Alpha  occ. eigenvalues --   -0.87802  -0.81190  -0.76942  -0.75402  -0.70440
 Alpha  occ. eigenvalues --   -0.63739  -0.59315  -0.57126  -0.55708  -0.55298
 Alpha  occ. eigenvalues --   -0.52251  -0.51542  -0.49957  -0.49215  -0.47715
 Alpha  occ. eigenvalues --   -0.45321  -0.44641  -0.42622  -0.39687  -0.38601
 Alpha  occ. eigenvalues --   -0.37098  -0.36420  -0.30902
 Alpha virt. eigenvalues --   -0.05648  -0.02833   0.00171   0.01293   0.02433
 Alpha virt. eigenvalues --    0.03225   0.08924   0.10166   0.10694   0.12863
 Alpha virt. eigenvalues --    0.16093   0.16613   0.16931   0.17140   0.17529
 Alpha virt. eigenvalues --    0.18348   0.18535   0.18895   0.19617   0.19684
 Alpha virt. eigenvalues --    0.20026   0.20811   0.21387   0.22109   0.22450
 Alpha virt. eigenvalues --    0.22652   0.23813
          Condensed to atoms (all electrons):
               1          2          3          4          5          6
     1  C    4.035997   0.000000   0.000000   0.000000   0.000000   0.000000
     2  C    0.000000   4.252513   0.000000   0.000000   0.000000   0.000000
     3  C    0.000000   0.000000   3.852036   0.000000   0.000000   0.000000
     4  C    0.000000   0.000000   0.000000   4.237599   0.000000   0.000000
     5  C    0.000000   0.000000   0.000000   0.000000   4.011588   0.000000
     6  C    0.000000   0.000000   0.000000   0.000000   0.000000   4.236312
     7  H    0.000000   0.000000   0.000000   0.000000   0.000000   0.000000
     8  H    0.000000   0.000000   0.000000   0.000000   0.000000   0.000000
     9  H    0.000000   0.000000   0.000000   0.000000   0.000000   0.000000
    10  C    0.000000   0.000000   0.000000   0.000000   0.000000   0.000000
    11  C    0.000000   0.000000   0.000000   0.000000   0.000000   0.000000
    12  H    0.000000   0.000000   0.000000   0.000000   0.000000   0.000000
    13  H    0.000000   0.000000   0.000000   0.000000   0.000000   0.000000
    14  H    0.000000   0.000000   0.000000   0.000000   0.000000   0.000000
    15  O    0.000000   0.000000   0.000000   0.000000   0.000000   0.000000
    16  S    0.000000   0.000000   0.000000   0.000000   0.000000   0.000000
    17  O    0.000000   0.000000   0.000000   0.000000   0.000000   0.000000
               7          8          9         10         11         12
     1  C    0.000000   0.000000   0.000000   0.000000   0.000000   0.000000
     2  C    0.000000   0.000000   0.000000   0.000000   0.000000   0.000000
     3  C    0.000000   0.000000   0.000000   0.000000   0.000000   0.000000
     4  C    0.000000   0.000000   0.000000   0.000000   0.000000   0.000000
     5  C    0.000000   0.000000   0.000000   0.000000   0.000000   0.000000
     6  C    0.000000   0.000000   0.000000   0.000000   0.000000   0.000000
     7  H    0.833031   0.000000   0.000000   0.000000   0.000000   0.000000
     8  H    0.000000   0.858872   0.000000   0.000000   0.000000   0.000000
     9  H    0.000000   0.000000   0.831180   0.000000   0.000000   0.000000
    10  C    0.000000   0.000000   0.000000   4.519305   0.000000   0.000000
    11  C    0.000000   0.000000   0.000000   0.000000   3.689721   0.000000
    12  H    0.000000   0.000000   0.000000   0.000000   0.000000   0.850814
    13  H    0.000000   0.000000   0.000000   0.000000   0.000000   0.000000
    14  H    0.000000   0.000000   0.000000   0.000000   0.000000   0.000000
    15  O    0.000000   0.000000   0.000000   0.000000   0.000000   0.000000
    16  S    0.000000   0.000000   0.000000   0.000000   0.000000   0.000000
    17  O    0.000000   0.000000   0.000000   0.000000   0.000000   0.000000
              13         14         15         16         17
     1  C    0.000000   0.000000   0.000000   0.000000   0.000000
     2  C    0.000000   0.000000   0.000000   0.000000   0.000000
     3  C    0.000000   0.000000   0.000000   0.000000   0.000000
     4  C    0.000000   0.000000   0.000000   0.000000   0.000000
     5  C    0.000000   0.000000   0.000000   0.000000   0.000000
     6  C    0.000000   0.000000   0.000000   0.000000   0.000000
     7  H    0.000000   0.000000   0.000000   0.000000   0.000000
     8  H    0.000000   0.000000   0.000000   0.000000   0.000000
     9  H    0.000000   0.000000   0.000000   0.000000   0.000000
    10  C    0.000000   0.000000   0.000000   0.000000   0.000000
    11  C    0.000000   0.000000   0.000000   0.000000   0.000000
    12  H    0.000000   0.000000   0.000000   0.000000   0.000000
    13  H    0.843005   0.000000   0.000000   0.000000   0.000000
    14  H    0.000000   0.865009   0.000000   0.000000   0.000000
    15  O    0.000000   0.000000   6.693799   0.000000   0.000000
    16  S    0.000000   0.000000   0.000000   4.828328   0.000000
    17  O    0.000000   0.000000   0.000000   0.000000   6.560891
 Mulliken charges:
               1
     1  C   -0.035997
     2  C   -0.252513
     3  C    0.147964
     4  C   -0.237599
     5  C   -0.011588
     6  C   -0.236312
     7  H    0.166969
     8  H    0.141128
     9  H    0.168820
    10  C   -0.519305
    11  C    0.310279
    12  H    0.149186
    13  H    0.156995
    14  H    0.134991
    15  O   -0.693799
    16  S    1.171672
    17  O   -0.560891
 Sum of Mulliken charges =   0.00000
 Mulliken charges with hydrogens summed into heavy atoms:
               1
     1  C    0.105131
     2  C   -0.083693
     3  C    0.147964
     4  C   -0.237599
     5  C    0.137598
     6  C   -0.079318
    10  C   -0.352335
    11  C    0.445270
    15  O   -0.693799
    16  S    1.171672
    17  O   -0.560891
 APT charges:
               1
     1  C   -0.035997
     2  C   -0.252513
     3  C    0.147964
     4  C   -0.237599
     5  C   -0.011588
     6  C   -0.236312
     7  H    0.166969
     8  H    0.141128
     9  H    0.168820
    10  C   -0.519305
    11  C    0.310279
    12  H    0.149186
    13  H    0.156995
    14  H    0.134991
    15  O   -0.693799
    16  S    1.171672
    17  O   -0.560891
 Sum of APT charges =   0.00000
 APT charges with hydrogens summed into heavy atoms:
               1
     1  C    0.105131
     2  C   -0.083693
     3  C    0.147964
     4  C   -0.237599
     5  C    0.137598
     6  C   -0.079318
    10  C   -0.352335
    11  C    0.445270
    15  O   -0.693799
    16  S    1.171672
    17  O   -0.560891
 Charge=              0.0000 electrons
 Dipole moment (field-independent basis, Debye):
    X=             -0.2889    Y=             -0.3051    Z=             -3.7812  Tot=              3.8045
 N-N= 3.156581452519D+02 E-N=-4.878230173198D+02  KE=-1.077707983971D+02
  Exact polarizability:       0.000       0.000       0.000       0.000       0.000       0.000
 Approx polarizability:     117.453       6.826     113.504      14.750       1.262      76.061
 Calling FoFJK, ICntrl=    100127 FMM=F ISym2X=0 I1Cent= 0 IOpClX= 0 NMat=1 NMatS=1 NMatT=0.
 -------------------------------------------------------------------
 Center     Atomic                   Forces (Hartrees/Bohr)
 Number     Number              X              Y              Z
 -------------------------------------------------------------------
      1        6           0.005202572   -0.002421696   -0.001768393
      2        6          -0.006699848   -0.003694086    0.001135273
      3        6           0.027348123    0.009161078   -0.002163889
      4        6           0.026113330    0.020358648    0.005111936
      5        6          -0.006141632   -0.002578756    0.003244141
      6        6          -0.001367579    0.006108950   -0.000457574
      7        1           0.004470581    0.004982579    0.012571104
      8        1          -0.000282564   -0.000366677    0.000247203
      9        1           0.000167189    0.000352646    0.000034911
     10        6           0.004278858    0.030001034    0.044569099
     11        6           0.030382745   -0.032258646    0.034801645
     12        1          -0.000173312    0.000387136    0.000559766
     13        1           0.000173897    0.000035403   -0.000044932
     14        1           0.011797048    0.005460702    0.018678141
     15        8          -0.012143621   -0.089012247   -0.067422122
     16       16          -0.083126603    0.046476903   -0.035669331
     17        8           0.000000816    0.007007029   -0.013426978
 -------------------------------------------------------------------
 Cartesian Forces:  Max     0.089012247 RMS     0.025103217
 FormGI is forming the generalized inverse of G from B-inverse, IUseBI=4.

 GradGradGradGradGradGradGradGradGradGradGradGradGradGradGradGradGradGrad
 Berny optimization.
 Internal  Forces:  Max     0.088225000 RMS     0.017581743
 Search for a saddle point.
 Step number   1 out of a maximum of   96
 All quantities printed in internal units (Hartrees-Bohrs-Radians)
 Swapping is turned off.
 Second derivative matrix not updated -- analytic derivatives used.
 ITU=  0
     Eigenvalues ---   -0.08066  -0.00695   0.00235   0.00380   0.01005
     Eigenvalues ---    0.01236   0.01275   0.01753   0.02242   0.02382
     Eigenvalues ---    0.02694   0.02866   0.03035   0.03300   0.03844
     Eigenvalues ---    0.04759   0.05288   0.06898   0.08448   0.08745
     Eigenvalues ---    0.10052   0.10248   0.10741   0.10995   0.12116
     Eigenvalues ---    0.12366   0.14929   0.15649   0.18771   0.20081
     Eigenvalues ---    0.24618   0.25559   0.26183   0.26443   0.27428
     Eigenvalues ---    0.28096   0.28631   0.33495   0.39270   0.47746
     Eigenvalues ---    0.47763   0.54134   0.58791   0.64978   0.75380
 Eigenvectors required to have negative eigenvalues:
                          R16       R14       R17       D25       A26
   1                    0.82660   0.38978  -0.32432   0.09254   0.08959
                          D27       R9        A24       A22       D15
   1                    0.07595  -0.07001  -0.06194   0.05821   0.04616
 RFO step:  Lambda0=3.369440932D-02 Lambda=-9.21672173D-02.
 Linear search not attempted -- option 19 set.
 Maximum step size (   0.300) exceeded in Quadratic search.
    -- Step size scaled by   0.286
 Iteration  1 RMS(Cart)=  0.03534735 RMS(Int)=  0.00109367
 Iteration  2 RMS(Cart)=  0.00096785 RMS(Int)=  0.00036294
 Iteration  3 RMS(Cart)=  0.00000141 RMS(Int)=  0.00036294
 Iteration  4 RMS(Cart)=  0.00000000 RMS(Int)=  0.00036294
 Variable       Old X    -DE/DX   Delta X   Delta X   Delta X     New X
                                 (Linear)    (Quad)   (Total)
    R1        2.68332  -0.00159   0.00000  -0.00599  -0.00598   2.67734
    R2        2.62874   0.00548   0.00000   0.00730   0.00730   2.63604
    R3        2.06002   0.00049   0.00000   0.00170   0.00170   2.06172
    R4        2.58962   0.00395   0.00000   0.00426   0.00427   2.59389
    R5        2.04981  -0.00025   0.00000   0.00010   0.00010   2.04991
    R6        2.71348  -0.02072   0.00000   0.00904   0.00885   2.72233
    R7        2.81909  -0.02156   0.00000  -0.00981  -0.00964   2.80946
    R8        2.58338   0.00470   0.00000   0.00848   0.00847   2.59185
    R9        2.86656  -0.02939   0.00000  -0.04206  -0.04223   2.82433
   R10        2.68496  -0.00274   0.00000  -0.00857  -0.00858   2.67638
   R11        2.05200   0.00053   0.00000   0.00117   0.00117   2.05317
   R12        2.05824  -0.00018   0.00000  -0.00035  -0.00035   2.05789
   R13        2.04527  -0.01043   0.00000  -0.00481  -0.00481   2.04046
   R14        4.53534  -0.06927   0.00000  -0.15199  -0.15113   4.38422
   R15        2.05778  -0.00971   0.00000  -0.00662  -0.00662   2.05116
   R16        3.77945  -0.08443   0.00000   0.14135   0.14048   3.91993
   R17        3.40703  -0.08822   0.00000  -0.18707  -0.18702   3.22001
   R18        2.73579  -0.01478   0.00000  -0.00596  -0.00596   2.72982
    A1        2.13144   0.00023   0.00000   0.00421   0.00419   2.13563
    A2        2.06515  -0.00001   0.00000  -0.00030  -0.00030   2.06486
    A3        2.08658  -0.00022   0.00000  -0.00393  -0.00393   2.08265
    A4        2.01967  -0.00270   0.00000   0.00010   0.00009   2.01977
    A5        2.11184   0.00165   0.00000   0.00208   0.00206   2.11390
    A6        2.15160   0.00105   0.00000  -0.00225  -0.00226   2.14934
    A7        2.13162   0.00181   0.00000  -0.00386  -0.00391   2.12771
    A8        2.51536   0.01411   0.00000   0.01208   0.01199   2.52735
    A9        1.63614  -0.01591   0.00000  -0.00825  -0.00812   1.62802
   A10        2.13518   0.00581   0.00000   0.00005   0.00006   2.13524
   A11        1.60912  -0.01931   0.00000  -0.01559  -0.01581   1.59331
   A12        2.53885   0.01351   0.00000   0.01541   0.01551   2.55436
   A13        2.02149  -0.00377   0.00000  -0.00009  -0.00014   2.02136
   A14        2.14969   0.00200   0.00000  -0.00220  -0.00218   2.14751
   A15        2.11199   0.00177   0.00000   0.00231   0.00233   2.11432
   A16        2.12686  -0.00138   0.00000  -0.00064  -0.00067   2.12619
   A17        2.08820   0.00073   0.00000  -0.00198  -0.00197   2.08624
   A18        2.06811   0.00065   0.00000   0.00260   0.00262   2.07073
   A19        2.09156   0.00833   0.00000   0.00733   0.00739   2.09895
   A20        1.99339  -0.01037   0.00000  -0.00038  -0.00077   1.99261
   A21        2.04111  -0.00501   0.00000  -0.01305  -0.01298   2.02814
   A22        2.09538   0.01174   0.00000   0.05029   0.04980   2.14519
   A23        1.99803  -0.01686   0.00000  -0.02217  -0.02160   1.97643
   A24        1.93009  -0.01377   0.00000  -0.03977  -0.03930   1.89079
   A25        1.66504   0.00515   0.00000  -0.02548  -0.02672   1.63832
   A26        1.38536  -0.01438   0.00000   0.05372   0.05517   1.44053
   A27        1.96287  -0.00151   0.00000  -0.01591  -0.01634   1.94652
   A28        1.99576   0.01125   0.00000   0.00748   0.00756   2.00332
    D1       -0.00503   0.00029   0.00000  -0.00085  -0.00087  -0.00591
    D2        3.12388  -0.00003   0.00000  -0.00769  -0.00788   3.11599
    D3       -3.13969   0.00023   0.00000   0.00280   0.00287  -3.13681
    D4       -0.01077  -0.00009   0.00000  -0.00405  -0.00414  -0.01491
    D5        0.00109  -0.00008   0.00000   0.00197   0.00208   0.00317
    D6       -3.13423  -0.00018   0.00000   0.00424   0.00430  -3.12993
    D7        3.13566  -0.00002   0.00000  -0.00170  -0.00169   3.13397
    D8        0.00034  -0.00012   0.00000   0.00057   0.00053   0.00087
    D9       -0.00175  -0.00047   0.00000  -0.00895  -0.00913  -0.01088
   D10        3.12430  -0.00016   0.00000  -0.01260  -0.01299   3.11131
   D11       -3.13034  -0.00014   0.00000  -0.00197  -0.00200  -3.13234
   D12       -0.00429   0.00017   0.00000  -0.00561  -0.00585  -0.01014
   D13        0.01327   0.00048   0.00000   0.01869   0.01903   0.03230
   D14       -3.13538   0.00186   0.00000   0.00656   0.00713  -3.12826
   D15       -3.11919   0.00011   0.00000   0.02067   0.02110  -3.09810
   D16        0.01534   0.00149   0.00000   0.00854   0.00920   0.02454
   D17        0.90475  -0.00607   0.00000   0.01033   0.01041   0.91516
   D18       -1.64648   0.00786   0.00000   0.02519   0.02564  -1.62083
   D19       -2.25003  -0.00578   0.00000   0.00721   0.00710  -2.24293
   D20        1.48193   0.00815   0.00000   0.02208   0.02234   1.50426
   D21       -0.01651  -0.00021   0.00000  -0.01659  -0.01687  -0.03339
   D22        3.12008   0.00026   0.00000  -0.01186  -0.01199   3.10809
   D23        3.13752  -0.00239   0.00000   0.00508   0.00490  -3.14076
   D24       -0.00907  -0.00192   0.00000   0.00982   0.00978   0.00072
   D25        2.21069   0.01163   0.00000   0.07585   0.07637   2.28706
   D26       -1.71247  -0.01876   0.00000   0.04220   0.04271  -1.66976
   D27       -0.94143   0.01352   0.00000   0.05753   0.05798  -0.88345
   D28        1.41860  -0.01687   0.00000   0.02388   0.02432   1.44292
   D29        0.00966  -0.00004   0.00000   0.00674   0.00679   0.01646
   D30       -3.13813   0.00006   0.00000   0.00448   0.00457  -3.13356
   D31       -3.12705  -0.00050   0.00000   0.00213   0.00202  -3.12503
   D32        0.00834  -0.00040   0.00000  -0.00013  -0.00020   0.00814
   D33       -1.50902  -0.01629   0.00000  -0.00187  -0.00217  -1.51119
   D34        0.44764  -0.00937   0.00000   0.02666   0.02650   0.47414
   D35        2.20502  -0.00761   0.00000   0.00544   0.00537   2.21038
   D36       -2.12151  -0.00070   0.00000   0.03397   0.03404  -2.08747
   D37        1.55748   0.02531   0.00000   0.01118   0.01113   1.56861
   D38       -2.29335   0.00930   0.00000   0.01988   0.02098  -2.27237
   D39        0.01027  -0.00086   0.00000  -0.00755  -0.00676   0.00351
   D40       -1.90939   0.00714   0.00000  -0.01202  -0.01241  -1.92180
         Item               Value     Threshold  Converged?
 Maximum Force            0.088225     0.000015     NO 
 RMS     Force            0.017582     0.000010     NO 
 Maximum Displacement     0.137222     0.000060     NO 
 RMS     Displacement     0.035492     0.000040     NO 
 Predicted change in Energy=-1.836684D-02
 GradGradGradGradGradGradGradGradGradGradGradGradGradGradGradGradGradGrad

                          Input orientation:                          
 ---------------------------------------------------------------------
 Center     Atomic      Atomic             Coordinates (Angstroms)
 Number     Number       Type             X           Y           Z
 ---------------------------------------------------------------------
      1          6           0       -5.599428   -1.653781    0.261525
      2          6           0       -4.270417   -1.750615   -0.219760
      3          6           0       -3.620939   -0.558069   -0.420050
      4          6           0       -4.259647    0.708468   -0.168540
      5          6           0       -5.537915    0.801393    0.319863
      6          6           0       -6.211145   -0.427855    0.523716
      7          1           0       -1.876822   -0.201795   -1.771062
      8          1           0       -6.153573   -2.576495    0.439964
      9          1           0       -3.806393   -2.715416   -0.394574
     10          6           0       -2.340754    0.073336   -0.835667
     11          6           0       -3.035898    1.449688   -0.600707
     12          1           0       -6.019706    1.749500    0.542189
     13          1           0       -7.231677   -0.407459    0.903182
     14          1           0       -3.063682    2.271760   -1.308929
     15          8           0       -1.806098    1.991152    0.979574
     16         16           0       -0.901601    0.548268    0.920980
     17          8           0       -1.113625   -0.344997    2.036272
 ---------------------------------------------------------------------
                    Distance matrix (angstroms):
                    1          2          3          4          5
     1  C    0.000000
     2  C    1.416786   0.000000
     3  C    2.362107   1.372627   0.000000
     4  C    2.749580   2.459639   1.440597   0.000000
     5  C    2.456637   2.900084   2.463819   1.371547   0.000000
     6  C    1.394931   2.463508   2.759858   2.361947   1.416279
     7  H    4.483020   3.245716   2.234750   3.012392   4.333815
     8  H    1.091017   2.159535   3.350806   3.840340   3.435634
     9  H    2.184608   1.084767   2.165453   3.461143   3.984536
    10  C    3.847820   2.725754   1.486702   2.128521   3.476658
    11  C    4.116631   3.451246   2.099047   1.494569   2.743688
    12  H    3.440599   3.986399   3.464803   2.164877   1.086489
    13  H    2.151575   3.440076   3.848514   3.350649   2.161114
    14  H    4.930132   4.338432   3.018041   2.274796   3.307078
    15  O    5.309471   4.638113   3.427991   2.997223   3.972052
    16  S    5.230055   4.234982   3.227559   3.534004   4.681967
    17  O    4.998507   4.126837   3.516467   3.983521   4.882070
                    6          7          8          9         10
     6  C    0.000000
     7  H    4.909527   0.000000
     8  H    2.151042   5.368280   0.000000
     9  H    3.443693   3.454887   2.494997   0.000000
    10  C    4.132679   1.079766   4.815228   3.181162   0.000000
    11  C    3.856383   2.332506   5.197407   4.240783   1.559736
    12  H    2.185833   5.130514   4.329272   5.070675   4.271148
    13  H    1.088989   5.989019   2.466089   4.329366   5.213050
    14  H    4.533544   2.782207   6.009294   5.124410   2.362133
    15  O    5.046171   3.518525   6.328911   5.295398   2.694249
    16  S    5.413122   2.959855   6.130149   4.562908   2.320028
    17  O    5.317838   3.885714   5.738367   4.333462   3.151013
                   11         12         13         14         15
    11  C    0.000000
    12  H    3.209238   0.000000
    13  H    4.828586   2.500332   0.000000
    14  H    1.085427   3.526680   5.426216   0.000000
    15  O    2.074338   4.243135   5.932628   2.626310   0.000000
    16  S    2.771879   5.270810   6.401843   3.552113   1.703955
    17  O    3.724203   5.539751   6.222408   4.673383   2.655885
                   16         17
    16  S    0.000000
    17  O    1.444560   0.000000
 Symmetry turned off by external request.
 Stoichiometry    C8H6O2S
 Framework group  C1[X(C8H6O2S)]
 Deg. of freedom    45
 Full point group                 C1      NOp   1
 Rotational constants (GHZ):           1.9841207           0.6833178           0.6159802
 Standard basis: VSTO-6G (5D, 7F)
    55 basis functions,   336 primitive gaussians,    56 cartesian basis functions
    28 alpha electrons       28 beta electrons
       nuclear repulsion energy       317.2335538775 Hartrees.
 Integral buffers will be    131072 words long.
 Regular integral format.
 Two-electron integral symmetry is turned off.
 Do NDO integrals.
 One-electron integrals computed using PRISM.
 NBasis=    55 RedAO= F EigKep=  0.00D+00  NBF=    55
 NBsUse=    55 1.00D-04 EigRej=  0.00D+00 NBFU=    55
 Initial guess from the checkpoint file:  "C:\Users\al6323\OneDrive - Imperial College London\Desktop\TSR20251114\TS_endo_Berny_opt+freq.chk"
 B after Tr=    -0.025396   -0.010625   -0.041603
         Rot=    0.999995   -0.002603   -0.001837    0.000484 Ang=  -0.37 deg.
 Keep J ints in memory in canonical form, NReq=1858957.
 Overlap will be assumed to be unity.
 Requested convergence on RMS density matrix=1.00D-08 within 128 cycles.
 Requested convergence on MAX density matrix=1.00D-06.
 Requested convergence on             energy=1.00D-06.
 No special actions if energy rises.
 SCF Done:  E(RPM6) =  0.125131334467     A.U. after   18 cycles
            NFock= 17  Conv=0.31D-08     -V/T= 1.0012
 Calling FoFJK, ICntrl=      2127 FMM=F ISym2X=0 I1Cent= 0 IOpClX= 0 NMat=1 NMatS=1 NMatT=0.
 -------------------------------------------------------------------
 Center     Atomic                   Forces (Hartrees/Bohr)
 Number     Number              X              Y              Z
 -------------------------------------------------------------------
      1        6           0.004779423   -0.002079088   -0.001234111
      2        6          -0.006003788   -0.002853073    0.000751534
      3        6           0.022477053    0.006043818   -0.000682673
      4        6           0.021565039    0.017989430    0.005898585
      5        6          -0.005598381   -0.002800888    0.002580347
      6        6          -0.001283695    0.005519661   -0.000619285
      7        1           0.004803027    0.003040332    0.010619910
      8        1          -0.000350561   -0.000308462    0.000235185
      9        1           0.000253474    0.000281593   -0.000071959
     10        6           0.004849287    0.022931644    0.036561570
     11        6           0.019752033   -0.027633245    0.021509492
     12        1           0.000007091    0.000415367    0.000546001
     13        1           0.000117984   -0.000096906   -0.000025315
     14        1           0.010336999    0.006198470    0.018091541
     15        8          -0.009214913   -0.070738706   -0.057036153
     16       16          -0.066489911    0.040267280   -0.027226863
     17        8          -0.000000162    0.003822774   -0.009897807
 -------------------------------------------------------------------
 Cartesian Forces:  Max     0.070738706 RMS     0.020232383

 GradGradGradGradGradGradGradGradGradGradGradGradGradGradGradGradGradGrad
 Berny optimization.
 FormGI is forming the generalized inverse of G from B-inverse, IUseBI=4.
 Internal  Forces:  Max     0.070815961 RMS     0.013969036
 Search for a saddle point.
 Step number   2 out of a maximum of   96
 All quantities printed in internal units (Hartrees-Bohrs-Radians)
 Swapping is turned off.
 Update second derivatives using D2CorX and points    1    2
 ITU=  0  0
     Eigenvalues ---   -0.08567  -0.00373   0.00237   0.00380   0.01008
     Eigenvalues ---    0.01236   0.01278   0.01776   0.02226   0.02391
     Eigenvalues ---    0.02694   0.02866   0.03044   0.03301   0.03918
     Eigenvalues ---    0.04747   0.05332   0.06923   0.08443   0.08776
     Eigenvalues ---    0.10052   0.10725   0.10995   0.11167   0.12195
     Eigenvalues ---    0.12440   0.14927   0.15649   0.18775   0.20115
     Eigenvalues ---    0.24621   0.25559   0.26182   0.26443   0.27427
     Eigenvalues ---    0.28096   0.28629   0.33488   0.39263   0.47748
     Eigenvalues ---    0.47820   0.54133   0.58792   0.64977   0.75416
 Eigenvectors required to have negative eigenvalues:
                          R16       R14       R17       D25       A26
   1                    0.83304   0.36144  -0.32250   0.10591   0.09799
                          D27       R9        A24       A22       D26
   1                    0.08593  -0.07386  -0.06516   0.06272   0.05040
 RFO step:  Lambda0=2.039308152D-02 Lambda=-6.78431411D-02.
 Linear search not attempted -- option 19 set.
 Maximum step size (   0.300) exceeded in Quadratic search.
    -- Step size scaled by   0.322
 Iteration  1 RMS(Cart)=  0.04543470 RMS(Int)=  0.00141024
 Iteration  2 RMS(Cart)=  0.00124583 RMS(Int)=  0.00037730
 Iteration  3 RMS(Cart)=  0.00000199 RMS(Int)=  0.00037730
 Iteration  4 RMS(Cart)=  0.00000000 RMS(Int)=  0.00037730
 Variable       Old X    -DE/DX   Delta X   Delta X   Delta X     New X
                                 (Linear)    (Quad)   (Total)
    R1        2.67734  -0.00148   0.00000  -0.00559  -0.00560   2.67174
    R2        2.63604   0.00463   0.00000   0.00722   0.00720   2.64324
    R3        2.06172   0.00048   0.00000   0.00186   0.00186   2.06359
    R4        2.59389   0.00315   0.00000   0.00326   0.00327   2.59716
    R5        2.04991  -0.00013   0.00000   0.00062   0.00062   2.05054
    R6        2.72233  -0.01379   0.00000   0.01036   0.01024   2.73258
    R7        2.80946  -0.01664   0.00000  -0.00627  -0.00613   2.80333
    R8        2.59185   0.00420   0.00000   0.00907   0.00907   2.60092
    R9        2.82433  -0.02315   0.00000  -0.04169  -0.04182   2.78251
   R10        2.67638  -0.00252   0.00000  -0.00884  -0.00886   2.66752
   R11        2.05317   0.00047   0.00000   0.00138   0.00138   2.05455
   R12        2.05789  -0.00012   0.00000  -0.00001  -0.00001   2.05788
   R13        2.04046  -0.00791   0.00000  -0.00301  -0.00301   2.03745
   R14        4.38422  -0.05689   0.00000  -0.18506  -0.18421   4.20001
   R15        2.05116  -0.00737   0.00000  -0.00683  -0.00683   2.04433
   R16        3.91993  -0.06636   0.00000   0.13273   0.13188   4.05181
   R17        3.22001  -0.07082   0.00000  -0.15516  -0.15508   3.06493
   R18        2.72982  -0.01001   0.00000  -0.00066  -0.00066   2.72917
    A1        2.13563   0.00045   0.00000   0.00386   0.00384   2.13947
    A2        2.06486  -0.00003   0.00000   0.00002   0.00003   2.06488
    A3        2.08265  -0.00042   0.00000  -0.00392  -0.00391   2.07874
    A4        2.01977  -0.00193   0.00000   0.00009   0.00010   2.01987
    A5        2.11390   0.00132   0.00000   0.00210   0.00208   2.11598
    A6        2.14934   0.00060   0.00000  -0.00234  -0.00236   2.14698
    A7        2.12771   0.00109   0.00000  -0.00289  -0.00294   2.12478
    A8        2.52735   0.01103   0.00000   0.01109   0.01093   2.53828
    A9        1.62802  -0.01213   0.00000  -0.00821  -0.00800   1.62002
   A10        2.13524   0.00401   0.00000  -0.00180  -0.00186   2.13338
   A11        1.59331  -0.01454   0.00000  -0.01292  -0.01303   1.58028
   A12        2.55436   0.01054   0.00000   0.01426   0.01425   2.56861
   A13        2.02136  -0.00269   0.00000   0.00072   0.00071   2.02207
   A14        2.14751   0.00130   0.00000  -0.00327  -0.00327   2.14424
   A15        2.11432   0.00140   0.00000   0.00255   0.00256   2.11687
   A16        2.12619  -0.00095   0.00000  -0.00050  -0.00053   2.12566
   A17        2.08624   0.00038   0.00000  -0.00244  -0.00243   2.08381
   A18        2.07073   0.00057   0.00000   0.00292   0.00293   2.07366
   A19        2.09895   0.00784   0.00000   0.00919   0.00912   2.10807
   A20        1.99261  -0.00878   0.00000  -0.00176  -0.00228   1.99033
   A21        2.02814  -0.00464   0.00000  -0.02148  -0.02141   2.00673
   A22        2.14519   0.01066   0.00000   0.05424   0.05366   2.19885
   A23        1.97643  -0.01318   0.00000  -0.02364  -0.02290   1.95353
   A24        1.89079  -0.01237   0.00000  -0.04376  -0.04321   1.84757
   A25        1.63832   0.00390   0.00000  -0.03241  -0.03365   1.60467
   A26        1.44053  -0.00907   0.00000   0.05568   0.05699   1.49752
   A27        1.94652  -0.00209   0.00000  -0.02657  -0.02705   1.91948
   A28        2.00332   0.00932   0.00000   0.01032   0.01071   2.01403
    D1       -0.00591   0.00004   0.00000  -0.00024  -0.00028  -0.00618
    D2        3.11599  -0.00054   0.00000  -0.00827  -0.00847   3.10753
    D3       -3.13681   0.00025   0.00000   0.00339   0.00346  -3.13336
    D4       -0.01491  -0.00033   0.00000  -0.00464  -0.00473  -0.01965
    D5        0.00317   0.00004   0.00000   0.00128   0.00138   0.00455
    D6       -3.12993   0.00010   0.00000   0.00450   0.00457  -3.12536
    D7        3.13397  -0.00017   0.00000  -0.00236  -0.00236   3.13161
    D8        0.00087  -0.00011   0.00000   0.00086   0.00083   0.00170
    D9       -0.01088  -0.00061   0.00000  -0.00977  -0.00994  -0.02082
   D10        3.11131  -0.00138   0.00000  -0.01102  -0.01141   3.09990
   D11       -3.13234  -0.00003   0.00000  -0.00162  -0.00165  -3.13398
   D12       -0.01014  -0.00079   0.00000  -0.00287  -0.00312  -0.01326
   D13        0.03230   0.00120   0.00000   0.01985   0.02016   0.05245
   D14       -3.12826   0.00183   0.00000   0.00419   0.00480  -3.12346
   D15       -3.09810   0.00146   0.00000   0.02039   0.02081  -3.07728
   D16        0.02454   0.00208   0.00000   0.00474   0.00546   0.02999
   D17        0.91516  -0.00529   0.00000   0.01030   0.01031   0.92547
   D18       -1.62083   0.00590   0.00000   0.04123   0.04170  -1.57913
   D19       -2.24293  -0.00591   0.00000   0.00921   0.00903  -2.23390
   D20        1.50426   0.00528   0.00000   0.04014   0.04042   1.54468
   D21       -0.03339  -0.00101   0.00000  -0.01781  -0.01807  -0.05146
   D22        3.10809  -0.00041   0.00000  -0.01349  -0.01361   3.09448
   D23       -3.14076  -0.00159   0.00000   0.01120   0.01104  -3.12972
   D24        0.00072  -0.00099   0.00000   0.01552   0.01550   0.01622
   D25        2.28706   0.01257   0.00000   0.09526   0.09585   2.38290
   D26       -1.66976  -0.01260   0.00000   0.05576   0.05627  -1.61348
   D27       -0.88345   0.01314   0.00000   0.07073   0.07120  -0.81225
   D28        1.44292  -0.01202   0.00000   0.03123   0.03163   1.47455
   D29        0.01646   0.00034   0.00000   0.00774   0.00781   0.02426
   D30       -3.13356   0.00027   0.00000   0.00452   0.00461  -3.12895
   D31       -3.12503  -0.00025   0.00000   0.00351   0.00343  -3.12160
   D32        0.00814  -0.00031   0.00000   0.00029   0.00023   0.00838
   D33       -1.51119  -0.01218   0.00000   0.00059   0.00054  -1.51066
   D34        0.47414  -0.00560   0.00000   0.03167   0.03145   0.50559
   D35        2.21038  -0.00608   0.00000   0.01942   0.01942   2.22980
   D36       -2.08747   0.00049   0.00000   0.05050   0.05032  -2.03714
   D37        1.56861   0.01845   0.00000   0.01462   0.01446   1.58307
   D38       -2.27237   0.00776   0.00000   0.02506   0.02632  -2.24604
   D39        0.00351  -0.00007   0.00000  -0.01176  -0.01094  -0.00742
   D40       -1.92180   0.00596   0.00000  -0.00752  -0.00799  -1.92979
         Item               Value     Threshold  Converged?
 Maximum Force            0.070816     0.000015     NO 
 RMS     Force            0.013969     0.000010     NO 
 Maximum Displacement     0.191719     0.000060     NO 
 RMS     Displacement     0.045567     0.000040     NO 
 Predicted change in Energy=-1.602851D-02
 GradGradGradGradGradGradGradGradGradGradGradGradGradGradGradGradGradGrad

                          Input orientation:                          
 ---------------------------------------------------------------------
 Center     Atomic      Atomic             Coordinates (Angstroms)
 Number     Number       Type             X           Y           Z
 ---------------------------------------------------------------------
      1          6           0       -5.580003   -1.649097    0.281298
      2          6           0       -4.250396   -1.742597   -0.190191
      3          6           0       -3.609414   -0.546700   -0.408891
      4          6           0       -4.270341    0.721222   -0.193215
      5          6           0       -5.552859    0.806181    0.298989
      6          6           0       -6.209910   -0.423360    0.520586
      7          1           0       -1.853656   -0.168576   -1.741034
      8          1           0       -6.126397   -2.574145    0.476777
      9          1           0       -3.772413   -2.705362   -0.338687
     10          6           0       -2.339094    0.101653   -0.817029
     11          6           0       -3.061619    1.441126   -0.627740
     12          1           0       -6.043937    1.754007    0.505184
     13          1           0       -7.231235   -0.412036    0.898278
     14          1           0       -3.034908    2.298537   -1.286872
     15          8           0       -1.784607    1.931391    1.023368
     16         16           0       -0.963324    0.540992    0.872339
     17          8           0       -1.165209   -0.416154    1.934819
 ---------------------------------------------------------------------
                    Distance matrix (angstroms):
                    1          2          3          4          5
     1  C    0.000000
     2  C    1.413824   0.000000
     3  C    2.361114   1.374357   0.000000
     4  C    2.749325   2.463901   1.446017   0.000000
     5  C    2.455492   2.903786   2.471509   1.376348   0.000000
     6  C    1.398740   2.466837   2.764366   2.362521   1.411592
     7  H    4.490816   3.259910   2.236128   3.004638   4.335429
     8  H    1.092003   2.157706   3.351140   3.840999   3.433243
     9  H    2.183451   1.085097   2.165945   3.465627   3.988427
    10  C    3.843818   2.728967   1.483460   2.121963   3.474211
    11  C    4.088775   3.426475   2.073505   1.472441   2.732811
    12  H    3.441871   3.990811   3.472130   2.167960   1.087221
    13  H    2.153498   3.441011   3.852844   3.352987   2.158737
    14  H    4.951816   4.360147   3.032537   2.282609   3.328987
    15  O    5.270256   4.588140   3.394440   3.020507   3.998818
    16  S    5.143884   4.141086   3.134712   3.479116   4.632805
    17  O    4.872852   3.974104   3.388829   3.932429   4.839578
                    6          7          8          9         10
     6  C    0.000000
     7  H    4.914955   0.000000
     8  H    2.152852   5.381613   0.000000
     9  H    3.447793   3.476130   2.494682   0.000000
    10  C    4.128931   1.078174   4.814301   3.187874   0.000000
    11  C    3.834931   2.299944   5.170611   4.216887   1.533643
    12  H    2.183738   5.128379   4.329030   5.075225   4.266660
    13  H    1.088983   5.995298   2.464355   4.330459   5.209530
    14  H    4.555904   2.772773   6.034135   5.146064   2.351853
    15  O    5.037951   3.472255   6.280904   5.225518   2.653764
    16  S    5.346061   2.850596   6.043001   4.460535   2.222550
    17  O    5.239190   3.747953   5.603230   4.148109   3.036248
                   11         12         13         14         15
    11  C    0.000000
    12  H    3.205562   0.000000
    13  H    4.811303   2.501188   0.000000
    14  H    1.081815   3.544324   5.452636   0.000000
    15  O    2.144126   4.294400   5.930688   2.652407   0.000000
    16  S    2.731908   5.236300   6.340003   3.470248   1.621890
    17  O    3.689521   5.527698   6.153950   4.609189   2.593331
                   16         17
    16  S    0.000000
    17  O    1.444212   0.000000
 Symmetry turned off by external request.
 Stoichiometry    C8H6O2S
 Framework group  C1[X(C8H6O2S)]
 Deg. of freedom    45
 Full point group                 C1      NOp   1
 Rotational constants (GHZ):           2.0175977           0.7036699           0.6296723
 Standard basis: VSTO-6G (5D, 7F)
    55 basis functions,   336 primitive gaussians,    56 cartesian basis functions
    28 alpha electrons       28 beta electrons
       nuclear repulsion energy       318.9896527769 Hartrees.
 Integral buffers will be    131072 words long.
 Regular integral format.
 Two-electron integral symmetry is turned off.
 Do NDO integrals.
 One-electron integrals computed using PRISM.
 NBasis=    55 RedAO= F EigKep=  0.00D+00  NBF=    55
 NBsUse=    55 1.00D-04 EigRej=  0.00D+00 NBFU=    55
 Initial guess from the checkpoint file:  "C:\Users\al6323\OneDrive - Imperial College London\Desktop\TSR20251114\TS_endo_Berny_opt+freq.chk"
 B after Tr=    -0.029618   -0.023996   -0.064353
         Rot=    0.999985   -0.004368   -0.003102    0.001217 Ang=  -0.63 deg.
 Keep J ints in memory in canonical form, NReq=1858957.
 Overlap will be assumed to be unity.
 Requested convergence on RMS density matrix=1.00D-08 within 128 cycles.
 Requested convergence on MAX density matrix=1.00D-06.
 Requested convergence on             energy=1.00D-06.
 No special actions if energy rises.
 SCF Done:  E(RPM6) =  0.109997473795     A.U. after   20 cycles
            NFock= 19  Conv=0.87D-08     -V/T= 1.0010
 Calling FoFJK, ICntrl=      2127 FMM=F ISym2X=0 I1Cent= 0 IOpClX= 0 NMat=1 NMatS=1 NMatT=0.
 -------------------------------------------------------------------
 Center     Atomic                   Forces (Hartrees/Bohr)
 Number     Number              X              Y              Z
 -------------------------------------------------------------------
      1        6           0.003977312   -0.001734551   -0.000581103
      2        6          -0.004755135   -0.001857356    0.000215444
      3        6           0.017121413    0.002512720    0.000876782
      4        6           0.016781128    0.014989864    0.006503048
      5        6          -0.005147239   -0.002657018    0.001785911
      6        6          -0.001128414    0.004729331   -0.000734839
      7        1           0.005326714    0.001068289    0.008700962
      8        1          -0.000387590   -0.000273475    0.000209408
      9        1           0.000355490    0.000135919   -0.000140598
     10        6           0.001834963    0.016504043    0.025345642
     11        6           0.011357770   -0.022450997    0.009325512
     12        1           0.000137618    0.000446759    0.000492071
     13        1           0.000031401   -0.000185607    0.000030800
     14        1           0.008462745    0.006391604    0.017039806
     15        8          -0.009314554   -0.047435171   -0.045845813
     16       16          -0.044330285    0.029649550   -0.017146859
     17        8          -0.000323336    0.000166094   -0.006076173
 -------------------------------------------------------------------
 Cartesian Forces:  Max     0.047435171 RMS     0.014495561

 GradGradGradGradGradGradGradGradGradGradGradGradGradGradGradGradGradGrad
 Berny optimization.
 FormGI is forming the generalized inverse of G from B-inverse, IUseBI=4.
 Internal  Forces:  Max     0.048712941 RMS     0.009966828
 Search for a saddle point.
 Step number   3 out of a maximum of   96
 All quantities printed in internal units (Hartrees-Bohrs-Radians)
 Swapping is turned off.
 Update second derivatives using D2CorX and points    2    3
 ITU=  0  0  0
     Eigenvalues ---   -0.08868  -0.00224   0.00248   0.00380   0.01016
     Eigenvalues ---    0.01236   0.01284   0.01816   0.02188   0.02407
     Eigenvalues ---    0.02693   0.02866   0.03055   0.03302   0.03981
     Eigenvalues ---    0.04707   0.05411   0.06943   0.08402   0.08802
     Eigenvalues ---    0.10051   0.10731   0.10995   0.11797   0.12285
     Eigenvalues ---    0.13995   0.14944   0.15650   0.18793   0.20229
     Eigenvalues ---    0.24624   0.25561   0.26182   0.26443   0.27425
     Eigenvalues ---    0.28096   0.28625   0.33502   0.39245   0.47745
     Eigenvalues ---    0.48007   0.54127   0.58797   0.64980   0.75506
 Eigenvectors required to have negative eigenvalues:
                          R16       R14       R17       D25       A26
   1                    0.83729   0.35134  -0.30504   0.11996   0.10151
                          D27       R9        A24       A22       D26
   1                    0.09652  -0.07520  -0.06788   0.06497   0.05850
 RFO step:  Lambda0=1.157904149D-02 Lambda=-3.95389710D-02.
 Linear search not attempted -- option 19 set.
 Maximum step size (   0.300) exceeded in Quadratic search.
    -- Step size scaled by   0.412
 Iteration  1 RMS(Cart)=  0.06914693 RMS(Int)=  0.00270267
 Iteration  2 RMS(Cart)=  0.00280521 RMS(Int)=  0.00052958
 Iteration  3 RMS(Cart)=  0.00000554 RMS(Int)=  0.00052956
 Iteration  4 RMS(Cart)=  0.00000000 RMS(Int)=  0.00052956
 Variable       Old X    -DE/DX   Delta X   Delta X   Delta X     New X
                                 (Linear)    (Quad)   (Total)
    R1        2.67174  -0.00107   0.00000  -0.00415  -0.00420   2.66754
    R2        2.64324   0.00376   0.00000   0.00681   0.00675   2.64998
    R3        2.06359   0.00046   0.00000   0.00217   0.00217   2.06576
    R4        2.59716   0.00214   0.00000   0.00080   0.00081   2.59797
    R5        2.05054   0.00006   0.00000   0.00157   0.00157   2.05210
    R6        2.73258  -0.00755   0.00000   0.01389   0.01391   2.74649
    R7        2.80333  -0.01175   0.00000  -0.00156  -0.00175   2.80158
    R8        2.60092   0.00385   0.00000   0.01006   0.01012   2.61104
    R9        2.78251  -0.01650   0.00000  -0.04070  -0.04050   2.74201
   R10        2.66752  -0.00211   0.00000  -0.00872  -0.00873   2.65879
   R11        2.05455   0.00042   0.00000   0.00175   0.00175   2.05630
   R12        2.05788  -0.00002   0.00000   0.00056   0.00056   2.05844
   R13        2.03745  -0.00533   0.00000  -0.00098  -0.00098   2.03647
   R14        4.20001  -0.04049   0.00000  -0.20380  -0.20324   3.99677
   R15        2.04433  -0.00511   0.00000  -0.00832  -0.00832   2.03601
   R16        4.05181  -0.04871   0.00000   0.13487   0.13429   4.18610
   R17        3.06493  -0.04786   0.00000  -0.09443  -0.09434   2.97059
   R18        2.72917  -0.00454   0.00000   0.00801   0.00801   2.73718
    A1        2.13947   0.00053   0.00000   0.00343   0.00337   2.14285
    A2        2.06488  -0.00004   0.00000   0.00037   0.00039   2.06528
    A3        2.07874  -0.00050   0.00000  -0.00383  -0.00380   2.07494
    A4        2.01987  -0.00124   0.00000  -0.00043  -0.00043   2.01943
    A5        2.11598   0.00100   0.00000   0.00231   0.00228   2.11826
    A6        2.14698   0.00022   0.00000  -0.00214  -0.00215   2.14483
    A7        2.12478   0.00067   0.00000  -0.00037  -0.00028   2.12450
    A8        2.53828   0.00792   0.00000   0.01213   0.01198   2.55026
    A9        1.62002  -0.00860   0.00000  -0.01174  -0.01169   1.60834
   A10        2.13338   0.00221   0.00000  -0.00546  -0.00574   2.12764
   A11        1.58028  -0.00955   0.00000  -0.00928  -0.00907   1.57121
   A12        2.56861   0.00734   0.00000   0.01340   0.01299   2.58160
   A13        2.02207  -0.00169   0.00000   0.00209   0.00219   2.02426
   A14        2.14424   0.00066   0.00000  -0.00510  -0.00516   2.13908
   A15        2.11687   0.00103   0.00000   0.00301   0.00295   2.11983
   A16        2.12566  -0.00055   0.00000  -0.00001  -0.00002   2.12563
   A17        2.08381   0.00008   0.00000  -0.00330  -0.00331   2.08050
   A18        2.07366   0.00046   0.00000   0.00326   0.00325   2.07692
   A19        2.10807   0.00710   0.00000   0.01588   0.01500   2.12307
   A20        1.99033  -0.00694   0.00000  -0.00978  -0.01084   1.97949
   A21        2.00673  -0.00471   0.00000  -0.04209  -0.04211   1.96462
   A22        2.19885   0.00889   0.00000   0.06383   0.06250   2.26135
   A23        1.95353  -0.00963   0.00000  -0.03410  -0.03294   1.92060
   A24        1.84757  -0.01052   0.00000  -0.06055  -0.05963   1.78794
   A25        1.60467   0.00302   0.00000  -0.03865  -0.04015   1.56451
   A26        1.49752  -0.00591   0.00000   0.04785   0.04830   1.54583
   A27        1.91948  -0.00277   0.00000  -0.04973  -0.04978   1.86970
   A28        2.01403   0.00767   0.00000   0.02015   0.02112   2.03515
    D1       -0.00618  -0.00006   0.00000   0.00156   0.00147  -0.00471
    D2        3.10753  -0.00080   0.00000  -0.00850  -0.00870   3.09882
    D3       -3.13336   0.00028   0.00000   0.00420   0.00423  -3.12913
    D4       -0.01965  -0.00047   0.00000  -0.00586  -0.00595  -0.02559
    D5        0.00455   0.00009   0.00000  -0.00206  -0.00198   0.00257
    D6       -3.12536   0.00027   0.00000   0.00395   0.00403  -3.12133
    D7        3.13161  -0.00024   0.00000  -0.00469  -0.00472   3.12689
    D8        0.00170  -0.00006   0.00000   0.00132   0.00129   0.00300
    D9       -0.02082  -0.00072   0.00000  -0.00903  -0.00911  -0.02992
   D10        3.09990  -0.00202   0.00000  -0.00704  -0.00744   3.09246
   D11       -3.13398   0.00002   0.00000   0.00115   0.00116  -3.13282
   D12       -0.01326  -0.00128   0.00000   0.00314   0.00283  -0.01043
   D13        0.05245   0.00155   0.00000   0.01774   0.01792   0.07038
   D14       -3.12346   0.00166   0.00000  -0.00688  -0.00626  -3.12972
   D15       -3.07728   0.00215   0.00000   0.01640   0.01678  -3.06050
   D16        0.02999   0.00226   0.00000  -0.00822  -0.00741   0.02259
   D17        0.92547  -0.00469   0.00000   0.00385   0.00356   0.92903
   D18       -1.57913   0.00457   0.00000   0.07660   0.07702  -1.50211
   D19       -2.23390  -0.00578   0.00000   0.00555   0.00499  -2.22892
   D20        1.54468   0.00348   0.00000   0.07829   0.07845   1.62313
   D21       -0.05146  -0.00139   0.00000  -0.01720  -0.01740  -0.06885
   D22        3.09448  -0.00082   0.00000  -0.01502  -0.01512   3.07936
   D23       -3.12972  -0.00086   0.00000   0.02960   0.02957  -3.10014
   D24        0.01622  -0.00029   0.00000   0.03178   0.03185   0.04807
   D25        2.38290   0.01248   0.00000   0.15147   0.15249   2.53539
   D26       -1.61348  -0.00767   0.00000   0.07824   0.07863  -1.53485
   D27       -0.81225   0.01212   0.00000   0.11173   0.11247  -0.69978
   D28        1.47455  -0.00804   0.00000   0.03850   0.03861   1.51316
   D29        0.02426   0.00053   0.00000   0.00986   0.00997   0.03424
   D30       -3.12895   0.00035   0.00000   0.00385   0.00393  -3.12502
   D31       -3.12160  -0.00003   0.00000   0.00770   0.00770  -3.11390
   D32        0.00838  -0.00021   0.00000   0.00168   0.00166   0.01003
   D33       -1.51066  -0.00842   0.00000   0.01136   0.01219  -1.49846
   D34        0.50559  -0.00266   0.00000   0.04589   0.04595   0.55154
   D35        2.22980  -0.00427   0.00000   0.05862   0.05839   2.28819
   D36       -2.03714   0.00149   0.00000   0.09315   0.09215  -1.94500
   D37        1.58307   0.01223   0.00000   0.03315   0.03229   1.61536
   D38       -2.24604   0.00558   0.00000   0.03302   0.03544  -2.21060
   D39       -0.00742   0.00024   0.00000  -0.02664  -0.02546  -0.03288
   D40       -1.92979   0.00541   0.00000   0.00377   0.00361  -1.92617
         Item               Value     Threshold  Converged?
 Maximum Force            0.048713     0.000015     NO 
 RMS     Force            0.009967     0.000010     NO 
 Maximum Displacement     0.306005     0.000060     NO 
 RMS     Displacement     0.069951     0.000040     NO 
 Predicted change in Energy=-1.094584D-02
 GradGradGradGradGradGradGradGradGradGradGradGradGradGradGradGradGradGrad

                          Input orientation:                          
 ---------------------------------------------------------------------
 Center     Atomic      Atomic             Coordinates (Angstroms)
 Number     Number       Type             X           Y           Z
 ---------------------------------------------------------------------
      1          6           0       -5.552493   -1.640692    0.317543
      2          6           0       -4.218926   -1.727018   -0.137169
      3          6           0       -3.596190   -0.527647   -0.389654
      4          6           0       -4.288145    0.740737   -0.232464
      5          6           0       -5.578608    0.812947    0.255992
      6          6           0       -6.211335   -0.417817    0.509842
      7          1           0       -1.822334   -0.127577   -1.704558
      8          1           0       -6.084845   -2.568482    0.542912
      9          1           0       -3.717914   -2.684880   -0.240715
     10          6           0       -2.340020    0.144671   -0.799452
     11          6           0       -3.093880    1.445813   -0.659102
     12          1           0       -6.086340    1.759280    0.431276
     13          1           0       -7.235355   -0.418451    0.881216
     14          1           0       -3.000538    2.350729   -1.236364
     15          8           0       -1.790453    1.855456    1.084553
     16         16           0       -1.019687    0.512958    0.811234
     17          8           0       -1.212259   -0.552945    1.772888
 ---------------------------------------------------------------------
                    Distance matrix (angstroms):
                    1          2          3          4          5
     1  C    0.000000
     2  C    1.411600   0.000000
     3  C    2.359262   1.374787   0.000000
     4  C    2.751778   2.470564   1.453378   0.000000
     5  C    2.454549   2.907702   2.478716   1.381701   0.000000
     6  C    1.402310   2.470288   2.767696   2.364725   1.406970
     7  H    4.504719   3.280026   2.244013   3.000209   4.340270
     8  H    1.093154   2.156902   3.350834   3.844511   3.431131
     9  H    2.183498   1.085926   2.165792   3.472763   3.992956
    10  C    3.841247   2.733519   1.482535   2.114701   3.471168
    11  C    4.065111   3.406612   2.054133   1.451008   2.722461
    12  H    3.443507   3.995578   3.479197   2.170596   1.088147
    13  H    2.154907   3.442136   3.856236   3.357088   2.156862
    14  H    4.985834   4.395534   3.058883   2.292995   3.352365
    15  O    5.192716   4.497133   3.333640   3.035721   4.015402
    16  S    5.042645   4.018966   3.027104   3.438606   4.602396
    17  O    4.705195   3.750575   3.218751   3.893088   4.819921
                    6          7          8          9         10
     6  C    0.000000
     7  H    4.924545   0.000000
     8  H    2.154635   5.401679   0.000000
     9  H    3.452544   3.503692   2.495994   0.000000
    10  C    4.125254   1.077652   4.815273   3.196426   0.000000
    11  C    3.815505   2.277140   5.148328   4.198463   1.510289
    12  H    2.182098   5.128720   4.329203   5.080510   4.261052
    13  H    1.089282   6.005966   2.461860   4.332184   5.206347
    14  H    4.585118   2.783769   6.072678   5.182982   2.343900
    15  O    5.004225   3.422364   6.189217   5.107455   2.603514
    16  S    5.283029   2.717303   5.934905   4.314301   2.115000
    17  O    5.157937   3.556087   5.414548   3.857207   2.894037
                   11         12         13         14         15
    11  C    0.000000
    12  H    3.200313   0.000000
    13  H    4.795819   2.503037   0.000000
    14  H    1.077412   3.557107   5.485087   0.000000
    15  O    2.215189   4.346340   5.904147   2.663880   0.000000
    16  S    2.708207   5.231507   6.285455   3.390255   1.571969
    17  O    3.667439   5.559045   6.090226   4.548062   2.570703
                   16         17
    16  S    0.000000
    17  O    1.448452   0.000000
 Symmetry turned off by external request.
 Stoichiometry    C8H6O2S
 Framework group  C1[X(C8H6O2S)]
 Deg. of freedom    45
 Full point group                 C1      NOp   1
 Rotational constants (GHZ):           2.0404923           0.7311585           0.6437090
 Standard basis: VSTO-6G (5D, 7F)
    55 basis functions,   336 primitive gaussians,    56 cartesian basis functions
    28 alpha electrons       28 beta electrons
       nuclear repulsion energy       320.8545452842 Hartrees.
 Integral buffers will be    131072 words long.
 Regular integral format.
 Two-electron integral symmetry is turned off.
 Do NDO integrals.
 One-electron integrals computed using PRISM.
 NBasis=    55 RedAO= F EigKep=  0.00D+00  NBF=    55
 NBsUse=    55 1.00D-04 EigRej=  0.00D+00 NBFU=    55
 Initial guess from the checkpoint file:  "C:\Users\al6323\OneDrive - Imperial College London\Desktop\TSR20251114\TS_endo_Berny_opt+freq.chk"
 B after Tr=    -0.035719   -0.047307   -0.103066
         Rot=    0.999950   -0.008108   -0.005230    0.002456 Ang=  -1.14 deg.
 Keep J ints in memory in canonical form, NReq=1858957.
 Overlap will be assumed to be unity.
 Requested convergence on RMS density matrix=1.00D-08 within 128 cycles.
 Requested convergence on MAX density matrix=1.00D-06.
 Requested convergence on             energy=1.00D-06.
 No special actions if energy rises.
 SCF Done:  E(RPM6) =  0.100046754077     A.U. after   21 cycles
            NFock= 20  Conv=0.38D-08     -V/T= 1.0009
 Calling FoFJK, ICntrl=      2127 FMM=F ISym2X=0 I1Cent= 0 IOpClX= 0 NMat=1 NMatS=1 NMatT=0.
 -------------------------------------------------------------------
 Center     Atomic                   Forces (Hartrees/Bohr)
 Number     Number              X              Y              Z
 -------------------------------------------------------------------
      1        6           0.002520475   -0.001101281    0.000134371
      2        6          -0.002882042   -0.000772729   -0.000231978
      3        6           0.009989913    0.000121038    0.001271934
      4        6           0.010701337    0.009613333    0.007446930
      5        6          -0.003788987   -0.001684075    0.000589690
      6        6          -0.000826539    0.003097436   -0.000600836
      7        1           0.004841818   -0.000586156    0.005988854
      8        1          -0.000326254   -0.000189912    0.000121736
      9        1           0.000407827    0.000006419   -0.000144257
     10        6          -0.000653027    0.008964715    0.012043731
     11        6           0.006965260   -0.014288829    0.002014258
     12        1           0.000147844    0.000365216    0.000295498
     13        1          -0.000019825   -0.000181853    0.000041244
     14        1           0.005741053    0.005447670    0.014550071
     15        8          -0.007943326   -0.027873631   -0.034472355
     16       16          -0.024288471    0.020297293   -0.005996803
     17        8          -0.000587057   -0.001234654   -0.003052088
 -------------------------------------------------------------------
 Cartesian Forces:  Max     0.034472355 RMS     0.009185645

 GradGradGradGradGradGradGradGradGradGradGradGradGradGradGradGradGradGrad
 Berny optimization.
 FormGI is forming the generalized inverse of G from B-inverse, IUseBI=4.
 Internal  Forces:  Max     0.033135261 RMS     0.006170078
 Search for a saddle point.
 Step number   4 out of a maximum of   96
 All quantities printed in internal units (Hartrees-Bohrs-Radians)
 Swapping is turned off.
 Update second derivatives using D2CorX and points    3    4
 ITU=  0  0  0  0
     Eigenvalues ---   -0.08897   0.00141   0.00379   0.00537   0.01077
     Eigenvalues ---    0.01235   0.01321   0.01864   0.02156   0.02429
     Eigenvalues ---    0.02693   0.02865   0.03072   0.03302   0.03990
     Eigenvalues ---    0.04734   0.05426   0.06925   0.08415   0.08802
     Eigenvalues ---    0.10049   0.10731   0.10993   0.11739   0.12248
     Eigenvalues ---    0.14354   0.15007   0.15649   0.18797   0.20278
     Eigenvalues ---    0.24621   0.25559   0.26184   0.26443   0.27431
     Eigenvalues ---    0.28096   0.28622   0.33556   0.39202   0.47739
     Eigenvalues ---    0.48105   0.54113   0.58799   0.64953   0.75505
 Eigenvectors required to have negative eigenvalues:
                          R16       R14       R17       D25       D27
   1                   -0.82916  -0.37034   0.30278  -0.12547  -0.10156
                          A26       R9        A24       A22       D26
   1                   -0.10156   0.07279   0.06756  -0.06042  -0.05920
 RFO step:  Lambda0=5.348427729D-03 Lambda=-2.08690563D-02.
 Linear search not attempted -- option 19 set.
 Maximum step size (   0.300) exceeded in Quadratic search.
    -- Step size scaled by   0.750
 Iteration  1 RMS(Cart)=  0.04497948 RMS(Int)=  0.00353474
[...]
   yx        -0.663201D+01     -0.982762D+00     -0.109347D+01
   yy         0.105178D+03      0.155858D+02      0.173415D+02
   zx         0.683125D+00      0.101229D+00      0.112632D+00
   zy        -0.211980D+02     -0.314122D+01     -0.349507D+01
   zz         0.686654D+02      0.101752D+02      0.113214D+02

 First dipole hyperpolarizability, Beta (dipole orientation).
 ||, _|_  parallel and perpendicular components, (z) with respect to z axis,
 vector components x,y,z.  Values do not include the 1/n! factor of 1/2.
 (esu units = statvolt**-1 cm**4 , SI units = C**3 m**3 J**-2)
 Beta(0;0,0):
               (au)            (10**-30 esu)      (10**-50 SI)
   || (z)    -0.486370D+03     -0.420185D+01     -0.155948D+01
   _|_(z)    -0.162123D+03     -0.140062D+01     -0.519826D+00
   x          0.516730D+04      0.446415D+02      0.165682D+02
   y         -0.297780D+04     -0.257259D+02     -0.954791D+01
   z         -0.243185D+04     -0.210093D+02     -0.779738D+01
   ||         0.128813D+04      0.111285D+02      0.413022D+01
   xxx        0.122082D+04      0.105469D+02      0.391438D+01
   xxy       -0.693747D+03     -0.599343D+01     -0.222440D+01
   yxy        0.187834D+03      0.162274D+01      0.602264D+00
   yyy       -0.448037D+02     -0.387069D+00     -0.143657D+00
   xxz       -0.647569D+03     -0.559450D+01     -0.207634D+01
   yxz        0.343817D+03      0.297031D+01      0.110240D+01
   yyz       -0.734786D+02     -0.634798D+00     -0.235599D+00
   zxz        0.313783D+03      0.271084D+01      0.100610D+01
   zyz       -0.254050D+03     -0.219480D+01     -0.814577D+00
   zzz       -0.895678D+02     -0.773796D+00     -0.287187D+00

 ----------------------------------------------------------------------
 Unable to Open any file for archive entry.
 1|1|UNPC-SKCH-134-020|Freq|RPM6|ZDO|C8H6O2S1|AL6323|14-Nov-2025|0||#N 
 Geom=AllCheck Guess=TCheck SCRF=Check GenChk RPM6/ZDO Freq||Title Card
  Required||0,1|C,-5.5708094971,-1.6455821262,0.3047963536|C,-4.2515325
 156,-1.7591789949,-0.2347192241|C,-3.6110663788,-0.5817067506,-0.47574
 74052|C,-4.2568120724,0.7093982112,-0.2193516603|C,-5.5066197576,0.811
 6371531,0.3062049537|C,-6.1736756407,-0.4269362752,0.5645431104|H,-1.6
 212748384,-0.2355900959,-1.5791234486|H,-6.1104660552,-2.5700109628,0.
 5195987198|H,-3.8086904262,-2.73099664,-0.415455956|C,-2.391530601,0.1
 097036188,-0.9382624984|C,-3.0318375588,1.3687114447,-0.73643853|H,-5.
 992411797,1.7588510389,0.5244720398|H,-7.1773105614,-0.3933423534,0.98
 14679855|H,-2.862901975,2.3753524024,-1.0702508069|O,-2.1023796748,1.8
 684422592,0.9333965636|S,-1.1764416574,0.696381342,0.9179575533|O,-1.2
 035593025,-0.3980511212,1.8248885096||Version=EM64W-G16RevC.01|HF=0.08
 33487|RMSD=1.771e-009|RMSF=1.865e-007|ZeroPoint=0.1109369|Thermal=0.12
 04687|ETot=0.2038174|HTot=0.2047616|GTot=0.1584083|Dipole=0.0089077,0.
 3798138,-0.9394811|DipoleDeriv=0.1166304,-0.1912921,-0.1525913,-0.0181
 428,0.1253302,0.1064672,-0.0084853,0.0817127,0.1577371,-0.5630789,-0.0
 349952,0.1399039,-0.1899672,-0.5473265,0.0554025,0.0797955,-0.0181713,
 -0.4744943,0.6535016,0.5597157,0.0759227,0.1992136,0.3793668,-0.050729
 5,-0.0886916,-0.2704989,0.3951045,-1.631216,-0.3066662,-0.1166184,-0.2
 667722,-0.193761,-0.0372078,0.6419281,0.2060466,-0.384425,0.7377367,0.
 3509172,0.0926898,0.2776027,0.2100562,0.0322175,-0.2883264,-0.1430726,
 0.1013651,-0.5339578,-0.0162063,0.0020015,-0.3255509,-0.7187897,-0.150
 9373,0.0589657,0.0061225,-0.3981784,0.4018176,-0.0616487,-0.0734412,-0
 .0673546,0.1482426,0.0698227,0.1317556,0.0285253,0.4034873,0.1378124,0
 .0952157,0.0056261,0.1149444,0.2294277,-0.0203101,-0.0141443,-0.039577
 1,0.1140742,0.1229098,-0.1012119,0.0051717,-0.0261714,0.3268561,0.0493
 337,0.0203406,0.047943,0.194821,-2.3396374,-0.2645007,-0.6429666,0.465
 0658,-1.1088787,0.0237718,-0.9869956,0.021082,-1.6367153,1.9315587,0.2
 101429,0.6041667,-0.29248,0.8045183,-0.0928752,-0.219417,0.4187806,0.9
 857191,0.1465709,-0.0829107,-0.001522,-0.1477131,0.2229412,0.0306955,-
 0.0245432,0.0366768,0.1172622,0.3333188,-0.005535,-0.0361684,-0.001894
 6,0.0920905,-0.0002799,-0.0659004,-0.0000925,0.1953725,0.0447962,0.003
 9965,-0.0325805,0.0168029,0.2695246,-0.132234,0.0035684,-0.1190434,0.0
 595792,-0.5357391,0.1037341,-0.097582,-0.2237867,-0.9345689,-0.0520107
 ,-0.1176596,-0.3889197,-1.0112882,1.3950692,-0.2611278,0.0486403,-0.21
 66713,1.1468071,-0.20498,1.333185,-0.1823498,2.0226555,-0.4182289,0.00
 24079,0.1793397,0.7030201,-0.4519267,0.3738198,-0.4554616,0.3149514,-0
 .8419999|Polar=128.6760613,6.4030405,114.7589107,2.4598683,-2.5022024,
 59.1007033|HyperPolar=1200.1424529,394.6997485,-33.9213448,59.4057276,
 862.2053142,203.9429537,-85.789502,547.3215956,159.3816124,362.2404634
 |PG=C01 [X(C8H6O2S1)]|NImag=1||0.52517339,-0.04188449,0.65199458,-0.15
 507766,0.02230889,0.21246492,-0.22408243,-0.03869336,0.06524220,0.5077
 7063,0.07636969,-0.09334710,-0.03077713,0.04535428,0.71318797,0.066869
 82,0.01512518,-0.09249273,-0.15077073,-0.01226499,0.19469743,-0.060973
 18,-0.02141197,0.02591492,-0.14188418,-0.17633473,0.03058948,0.5052171
 6,-0.12428916,0.05365624,0.05064932,-0.07499604,-0.35190578,0.02585401
 ,0.20416928,0.77243100,0.02776306,0.00772759,-0.00526377,0.02778457,0.
 06477947,-0.07159433,-0.14036502,-0.06963201,0.19191837,-0.06707263,0.
 03746317,0.02491668,0.06993016,0.03311130,-0.02276706,-0.09870631,0.03
 667292,0.01170967,0.80688649,0.02339726,-0.02912721,-0.01064821,-0.029
 86808,-0.06807339,0.01317597,0.07035972,-0.18867351,-0.02822259,-0.040
 04260,0.41395625,0.02898682,-0.01701350,-0.01619307,-0.02764404,-0.015
 99793,0.01924782,0.01398987,-0.01230664,-0.07513998,-0.27428095,0.0182
 8308,0.23545386,0.07941018,-0.04862793,-0.03033696,-0.06733446,-0.0338
 3387,0.02492386,-0.02172637,0.10877559,0.01108920,-0.37350662,-0.00178
 333,0.12886868,0.64038284,0.04454712,-0.08947294,-0.01867215,-0.042060
 32,-0.02705719,0.01605994,0.03328198,0.04169928,-0.01432515,0.09452210
 ,-0.08419177,-0.04255795,-0.04656037,0.56563848,-0.03131903,0.01940728
 ,0.01760114,0.02723905,0.01445635,-0.01271351,0.01042663,-0.04511562,0
 .00235187,0.13186754,-0.00191929,-0.11087230,-0.20636563,0.02618507,0.
 23018917,-0.14183348,0.15607903,0.03289317,-0.03123465,0.02927949,0.01
 566780,-0.00272855,-0.00078499,-0.00085774,-0.04288487,-0.02439716,0.0
 2040158,-0.12257950,-0.12226865,0.02160022,0.53034787,0.04137389,-0.30
 108600,-0.02041324,0.12039643,0.04113103,-0.04732766,-0.01385018,-0.10
 763572,0.00696210,-0.12234991,0.03189094,0.05487248,-0.00640297,-0.211
 64085,-0.00083303,-0.03790342,0.63498585,0.03202266,-0.06648487,-0.079
 76575,0.01642127,-0.01193167,-0.00010875,-0.00058141,-0.00063930,-0.00
 487545,0.02067960,0.01118760,0.00035087,0.02211165,0.04792478,-0.07534
 942,-0.16165979,0.02162624,0.20560413,0.00207556,-0.00143521,-0.001044
 50,-0.00215242,-0.00028862,0.00081702,-0.01883913,0.00150703,0.0146398
 1,0.00364085,0.00168210,-0.00025308,-0.00349617,-0.00167092,0.00156169
 ,0.00028111,0.00337588,-0.00025353,0.16449336,-0.00042848,0.00007353,-
 0.00005485,0.00005001,-0.00002638,-0.00007443,-0.00842554,0.00529989,0
 .00734807,-0.00052484,-0.00019311,0.00033553,0.00069018,0.00057129,-0.
 00021691,-0.00008847,-0.00057700,-0.00005829,-0.05693139,0.06628769,0.
 00245708,-0.00155735,-0.00079137,-0.00291291,-0.00120380,0.00072023,0.
 01335298,0.00202670,-0.00465055,0.00497181,0.00080250,0.00010447,-0.00
 275029,-0.00162881,0.00172001,-0.00004551,0.00313097,-0.00023480,-0.11
 445546,0.04963211,0.11398864,-0.07959882,-0.07750541,0.01424320,-0.027
 03095,-0.02228772,0.01369617,-0.00198244,0.00078092,0.00266258,0.00130
 818,0.00048962,-0.00072809,-0.00048167,0.00063463,0.00300812,0.0067174
 6,0.00809307,-0.00010161,-0.00010543,-0.00000409,-0.00004351,0.1024177
 0,-0.07642168,-0.16618623,0.03053422,-0.00905911,-0.00079489,0.0035416
 4,0.00042399,-0.00002374,-0.00016689,0.00192717,0.00120300,-0.00105728
 ,0.00010820,-0.00316392,-0.00004669,-0.00642385,-0.04002181,0.00217647
 ,-0.00015902,0.00005785,-0.00003471,0.08998758,0.20982031,0.01426866,0
 .03084872,-0.04916000,0.01370448,0.00906600,0.00126296,0.00278185,-0.0
 0026677,0.00341368,-0.00060393,-0.00027120,0.00029311,0.00296010,-0.00
 035824,0.00535770,-0.00017342,-0.00371170,0.00648831,0.00006484,-0.000
 00477,0.00008441,-0.03166285,-0.03546715,0.03629267,-0.02266163,0.0253
 5724,0.01122196,-0.06623277,0.06822486,0.01079817,0.00878776,-0.010229
 39,-0.00116756,-0.00036284,-0.00128820,0.00268312,0.00060587,0.0001583
 0,-0.00020975,-0.00194652,-0.00113644,0.00237514,0.00026364,-0.0002205
 5,0.00011907,-0.00064205,0.00028063,-0.00004906,0.08336787,0.01300820,
 -0.00526655,-0.00539473,0.06847193,-0.18644922,-0.02796579,0.00050578,
 -0.04159389,-0.00050303,-0.00026132,-0.00231479,0.00001129,-0.00088758
 ,-0.00024339,0.00031254,-0.00036334,0.00137337,0.00016820,-0.00022853,
 0.00013161,0.00004177,-0.00012901,0.00086239,0.00006698,-0.08192512,0.
 23283032,0.01111414,-0.01025904,0.00028955,0.01079886,-0.02778728,-0.0
 4436810,-0.00101456,0.00367304,0.00615700,0.00251873,0.00039099,0.0054
 3142,-0.00008392,0.00001494,0.00012741,0.00234223,0.00026885,0.0028387
 6,0.00006594,0.00016114,0.00017258,-0.00004083,-0.00009187,-0.00073608
 ,-0.02488303,0.03393785,0.03274234,-0.01940498,0.01275410,0.00978354,0
 .01091172,-0.00275878,-0.00162299,-0.21424466,-0.12595538,0.06167468,-
 0.13506609,0.03162826,0.07049199,0.02904765,0.01753775,-0.01206844,-0.
 00386482,-0.03040237,0.00178284,-0.12879098,0.04616171,0.10888856,0.00
 055494,0.00117659,-0.00061649,-0.00182324,0.00179749,-0.00053056,0.489
 86855,0.02971642,-0.01697191,-0.01069370,-0.05411664,-0.03010918,0.020
 65966,-0.02132039,-0.05346384,-0.00408006,0.07301681,0.02904275,-0.035
 61546,-0.02619883,-0.01687594,0.01299462,-0.00381192,0.03360917,0.0013
 0430,0.03706456,-0.05855288,-0.04903812,-0.00112259,-0.00079240,0.0003
 3328,0.00052929,0.00174200,-0.00016525,-0.05265629,0.40252412,-0.01233
 348,0.00800328,0.01033774,0.01985753,0.01157533,-0.00186006,0.04391627
 ,0.02619051,-0.07188346,0.02471542,-0.02337390,0.02468014,0.01732257,0
 .00871900,-0.00559957,0.00040612,-0.01767108,0.00019671,0.09414363,-0.
 03774644,-0.09661464,0.00011067,0.00052860,-0.00076868,-0.00102957,-0.
 00000795,-0.00189944,-0.27608551,0.12787603,0.21154557,0.01820777,-0.0
 0840867,-0.00610973,-0.01608278,-0.00971497,0.00488704,0.03800667,-0.0
 3009484,-0.00523924,-0.14772256,-0.03651500,0.03241381,-0.04992873,-0.
 02728643,0.02296895,-0.00388163,0.02667120,0.00336130,-0.01212929,0.02
 020978,0.00091428,-0.00131971,-0.00186739,0.00039395,0.00071271,-0.000
 02505,-0.00002592,-0.08361704,0.07784423,0.05011210,0.32920152,-0.0216
 0783,0.01182351,0.00788463,0.02426438,0.01175711,-0.01056269,-0.076308
 82,-0.13944078,0.04032680,-0.12570048,-0.09069620,0.06085229,0.0181762
 2,0.01323574,-0.00835154,0.00097736,-0.02371759,-0.00072858,0.02148376
 ,-0.01295578,0.00688988,0.00029520,0.00014117,0.00011721,-0.00026883,-
 0.00098864,0.00006238,0.07552572,-0.21089361,-0.12082374,0.01510955,0.
 60347459,-0.02930905,0.01527594,0.01115285,0.03189742,0.02002056,-0.01
 012230,-0.04048880,-0.01964150,0.04572631,0.02484183,0.01505814,-0.065
 69927,0.03735441,0.02340295,-0.01691247,0.00515846,-0.03469480,0.00422
 532,0.01817158,-0.01587690,0.01017847,0.00042586,0.00081565,-0.0006672
 9,-0.00017537,-0.00080262,0.00007563,-0.05371107,0.07718961,-0.1341174
 5,-0.07597438,-0.19253605,0.07831563,-0.00073801,-0.00106637,0.0020937
 7,0.00051325,0.00014862,-0.00022436,-0.00072280,-0.00069997,0.00335247
 ,-0.02334527,0.02669533,0.01270499,-0.07319918,0.07262320,0.01336484,0
 .00654705,-0.01027310,-0.00018610,-0.00013043,0.00000332,-0.00007786,0
 .00010285,-0.00018356,-0.00029895,-0.00014696,0.00009452,-0.00030546,-
 0.00004154,-0.00039984,0.00005389,-0.00075846,0.00051964,-0.00021285,0
 .09155264,-0.00140012,-0.00209904,0.00047412,-0.00034122,0.00041621,0.
 00020072,-0.00013953,0.00013425,-0.00012641,0.01018798,-0.00497419,-0.
 00409698,0.07283957,-0.17550145,-0.03246375,0.00416367,-0.03647871,-0.
 00235540,0.00017499,-0.00004359,0.00006349,0.00015312,-0.00039402,-0.0
 0005873,0.00007096,-0.00014900,-0.00002466,-0.00156119,0.00073887,-0.0
 0057091,0.00248142,0.00049557,-0.00072544,-0.08660300,0.21790607,0.001
 91150,0.00049037,0.00348184,-0.00001902,-0.00002942,0.00005333,0.00302
 765,0.00019247,0.00593611,0.01269954,-0.01141014,0.00110506,0.01336118
 ,-0.03217234,-0.05033476,-0.00000347,0.00338268,0.00662293,0.00003205,
 0.00006247,-0.00010066,-0.00030217,0.00007493,-0.00050792,-0.00031374,
 -0.00002761,-0.00076861,-0.00060541,0.00025808,-0.00114681,0.00010089,
 -0.00030218,-0.00137495,-0.02972537,0.03902943,0.03695032,-0.02301939,
 0.01565912,0.01166397,0.00182011,0.00161601,0.00170335,-0.00129064,-0.
 00069700,0.00062734,0.00061199,-0.00182115,0.00118984,-0.02254049,-0.0
 1363602,0.01132860,-0.19333602,0.00477621,0.06409931,-0.00013076,0.000
 04339,-0.00000600,0.00025753,0.00053904,-0.00083418,-0.00021920,0.0001
 2994,0.00004891,0.00118439,0.00101128,-0.00023646,-0.00013060,-0.00045
 574,-0.00041726,0.00032023,-0.00037777,-0.00042479,0.23659011,0.027803
 29,-0.00849607,-0.01166017,0.00086757,-0.00261096,-0.00042374,-0.00001
 973,0.00006960,0.00000067,-0.00090626,-0.00238384,0.00018285,-0.026285
 85,-0.00689463,0.01082455,0.00545050,-0.03365875,-0.00223778,-0.000017
 58,0.00000889,-0.00001019,0.00081411,-0.00044143,-0.00032349,0.0004017
 6,0.00006069,-0.00015797,0.00006471,-0.00002777,0.00008251,-0.00052880
 ,-0.00004364,0.00030044,-0.00074947,-0.00028780,0.00031115,-0.00679139
 ,0.05473071,0.01183406,-0.00657814,0.00007839,0.00163734,-0.00076644,0
 .00512684,0.00070418,0.00025288,-0.00003601,0.00109232,0.00075766,0.00
 305369,0.01126435,0.00552975,0.00084774,0.06408210,-0.00203229,-0.0657
 6016,0.00007949,-0.00000775,0.00000045,-0.00083866,-0.00020648,-0.0014
 6059,0.00005850,-0.00004843,-0.00013185,-0.00081647,-0.00056106,-0.000
 67269,0.00020818,0.00036422,0.00047255,-0.00043538,0.00016118,-0.00052
 680,-0.08886574,0.00317915,0.05917910,0.00090027,-0.00036798,-0.000339
 28,-0.00071793,-0.00087085,-0.00033150,0.00051224,0.00128721,0.0008460
 6,-0.00374636,-0.01758336,0.00931034,-0.00029189,-0.00149150,0.0003302
 7,-0.00051818,0.00105306,-0.00029927,-0.00013245,0.00070957,-0.0006241
 4,0.00004346,-0.00001143,0.00008148,-0.00006312,-0.00000845,-0.0000169
 2,0.00793965,0.00734388,0.00119837,-0.04183102,-0.02160059,0.01584861,
 0.00010790,-0.00009255,0.00017139,0.00002673,-0.00007471,0.00001335,0.
 04395227,-0.00028090,0.00016686,0.00004169,0.00035712,0.00040449,-0.00
 046212,-0.00065977,-0.00312309,0.00170150,-0.00601897,-0.00858275,0.00
 558173,-0.00016462,0.00012017,0.00014472,0.00012983,-0.00009608,-0.000
 21585,0.00063968,-0.00031772,0.00047198,-0.00003446,-0.00008151,0.0000
 6762,0.00002193,-0.00008334,-0.00006865,-0.00226497,-0.01958315,0.0029
 5081,-0.02582848,-0.20603580,0.05470578,-0.00001403,0.00023672,0.00007
 720,-0.00007336,0.00002719,0.00004198,0.03174901,0.23755805,0.00290493
 ,-0.00161767,-0.00121374,-0.00401183,-0.00195290,0.00042204,0.00750699
 ,0.00578300,0.00012786,0.00707999,0.01072287,0.00242817,-0.00225577,-0
 .00110180,0.00125716,-0.00017055,0.00311428,-0.00051396,-0.00081444,0.
 00040912,-0.00039120,0.00005114,-0.00000648,0.00014168,0.00003116,0.00
 013460,-0.00007851,0.00784386,-0.01340323,0.01381333,0.01122980,0.0690
 0941,-0.04108069,0.00011454,-0.00001435,0.00031997,0.00009090,0.000028
 31,-0.00001255,-0.01296900,-0.07007385,0.05510882,0.01818599,-0.010670
 71,-0.00697446,-0.01938273,-0.01251689,0.00885680,0.02324906,0.0252376
 0,-0.01556792,0.01424505,-0.00058844,-0.02203156,-0.01735041,-0.010330
 91,0.00783608,0.00059516,0.02087912,0.00050122,-0.00975893,-0.00012712
 ,-0.01150364,-0.00013897,-0.00001184,-0.00021566,-0.00011567,0.0003927
 0,0.00001683,0.08163825,-0.07891295,0.06626382,-0.00612332,0.11117158,
 0.12327726,0.00015348,0.00015338,0.00017574,0.00016395,-0.00003732,-0.
 00018272,-0.00762630,0.00074887,-0.01863343,0.04987359,-0.00380175,0.0
 0254691,0.00161884,0.00350278,0.00188887,-0.00189157,-0.00191311,-0.00
 545261,0.00227993,-0.01115192,-0.00047011,0.00310209,0.00540522,0.0027
 9466,-0.00217715,-0.00105792,-0.00523079,0.00019415,0.00204767,0.00035
 519,0.00455083,0.00014471,0.00021582,-0.00000661,-0.00006660,0.0003538
 3,0.00021130,-0.03786176,0.01082098,-0.04882338,-0.00688181,-0.0465278
 7,-0.05232983,0.00002503,-0.00065960,-0.00015568,0.00038852,-0.0000086
 0,-0.00013194,0.00306110,-0.00098871,0.00806838,-0.13557185,0.26044080
 ,0.01928451,-0.01054545,-0.00743784,-0.02160196,-0.01403013,0.00972592
 ,0.03052829,0.02757284,-0.01971278,0.01232137,0.00298219,-0.01151394,-
 0.01541136,-0.01085968,0.00624178,-0.00090595,0.02104641,0.00130380,-0
 .00853753,0.00077735,-0.00773679,-0.00020494,-0.00003572,-0.00022005,-
 0.00017045,0.00081909,-0.00012035,0.04489236,-0.08966103,0.03309428,-0
 .00824087,0.08942169,0.08240033,-0.00007171,-0.00026562,-0.00014460,0.
 00051587,-0.00010087,-0.00048349,-0.01033700,0.00270555,-0.02353221,-0
 .07461577,0.04239637,-0.02036938,-0.00588895,0.00357248,0.00227299,0.0
 0632287,0.00496881,-0.00264033,-0.01227969,-0.01092245,-0.00021894,-0.
 00727664,-0.00086624,0.00684400,0.00490040,0.00290050,-0.00272684,0.00
 031382,-0.00624765,0.00010605,0.00591374,-0.00097237,0.00307398,-0.000
 13886,-0.00030548,0.00012096,0.00035674,-0.00059224,-0.00029204,-0.044
 32291,0.01082434,-0.03195582,-0.01692033,-0.02554293,-0.06011785,-0.00
 027026,0.00027551,-0.00019781,-0.00034955,0.00000734,0.00008462,0.0015
 2885,0.00149063,0.00222597,-0.12553643,0.16667147,0.04459716,0.2104845
 4,0.01052026,-0.00609686,-0.00399545,-0.01120023,-0.00814095,0.0062867
 6,0.01166748,0.01760733,-0.01447429,0.01032858,0.00079809,-0.00983426,
 -0.00949522,-0.00622949,0.00413817,0.00050100,0.01152689,0.00047965,-0
 .00715137,0.00056612,-0.01159967,-0.00013780,-0.00001668,-0.00021420,-
 0.00057297,0.00032030,-0.00042608,0.04879959,-0.06583438,0.04626626,0.
 01862743,0.08296422,0.10680470,0.00002313,0.00034777,0.00006547,-0.000
 03688,-0.00003123,-0.00010973,-0.00341888,-0.00064286,-0.00888335,0.09
 133229,-0.20096888,-0.07870645,-0.14682741,0.48292592,0.01008414,-0.00
 614436,-0.00350643,-0.00824547,-0.00283021,0.00175130,-0.00186371,0.00
 534175,-0.00222708,0.02560512,0.00432890,-0.01595279,-0.01582166,-0.00
 778423,0.00797459,0.00184902,0.01537541,-0.00161120,-0.00435791,-0.004
 87607,-0.01839843,-0.00042391,-0.00089441,0.00035474,0.00091315,-0.001
 20874,0.00033496,0.05574340,-0.04611197,0.03938205,-0.03941562,0.06582
 621,0.03989664,-0.00028387,0.00115408,0.00061846,-0.00080716,0.0000020
 1,0.00055945,-0.00294352,0.00305106,-0.00753322,-0.06493017,0.04275738
 ,-0.03540401,0.04088921,-0.28676529,0.17985164,0.00132673,-0.00081291,
 -0.00036862,-0.00113509,-0.00047093,-0.00045012,-0.00039321,0.00024362
 ,0.00126774,0.00306935,0.00049872,-0.00294891,-0.00191553,-0.00090364,
 0.00115508,0.00000113,0.00195038,-0.00037917,-0.00100314,-0.00014371,-
 0.00135909,0.00003704,0.00000009,0.00008093,0.00011843,0.00001990,0.00
 028825,0.01003034,0.00118525,0.00353891,-0.00567927,0.00396541,0.00343
 790,0.00005553,0.00001601,0.00011483,0.00004244,0.00000129,0.00007928,
 -0.00008505,0.00020209,-0.00022615,-0.00208068,0.01706416,-0.01204221,
 -0.01683285,-0.01295840,0.00400641,0.01444712,0.00338655,-0.00211597,-
 0.00120523,-0.00294095,-0.00027561,0.00007463,-0.00001607,0.00042770,0
 .00039861,0.00972951,0.00277597,-0.00473995,-0.00576300,-0.00278952,0.
 00266360,0.00051702,0.00563575,-0.00040815,-0.00009278,-0.00068361,-0.
 00253782,-0.00017056,-0.00038378,0.00018231,0.00066268,-0.00058709,0.0
 0026031,0.01801730,-0.00537547,0.01683045,-0.01379189,0.00741213,0.003
 03255,-0.00014245,0.00