 Default is to use a total of   8 processors:
                                8 via shared-memory
                                1 via Linda
 Entering Link 1 = C:\G16W\l1.exe PID=     24400.
  
 Copyright (c) 1988-2019, Gaussian, Inc.  All Rights Reserved.
  
 This is part of the Gaussian(R) 16 program.  It is based on
 the Gaussian(R) 09 system (copyright 2009, Gaussian, Inc.),
 the Gaussian(R) 03 system (copyright 2003, Gaussian, Inc.),
 the Gaussian(R) 98 system (copyright 1998, Gaussian, Inc.),
 the Gaussian(R) 94 system (copyright 1995, Gaussian, Inc.),
 the Gaussian 92(TM) system (copyright 1992, Gaussian, Inc.),
 the Gaussian 90(TM) system (copyright 1990, Gaussian, Inc.),
 the Gaussian 88(TM) system (copyright 1988, Gaussian, Inc.),
 the Gaussian 86(TM) system (copyright 1986, Carnegie Mellon
 University), and the Gaussian 82(TM) system (copyright 1983,
 Carnegie Mellon University). Gaussian is a federally registered
 trademark of Gaussian, Inc.
  
 This software contains proprietary and confidential information,
 including trade secrets, belonging to Gaussian, Inc.
  
 This software is provided under written license and may be
 used, copied, transmitted, or stored only in accord with that
 written license.
  
 The following legend is applicable only to US Government
 contracts under FAR:
  
                    RESTRICTED RIGHTS LEGEND
  
 Use, reproduction and disclosure by the US Government is
 subject to restrictions as set forth in subparagraphs (a)
 and (c) of the Commercial Computer Software - Restricted
 Rights clause in FAR 52.227-19.
  
 Gaussian, Inc.
 340 Quinnipiac St., Bldg. 40, Wallingford CT 06492
  
  
 ---------------------------------------------------------------
 Warning -- This program may not be used in any manner that
 competes with the business of Gaussian, Inc. or will provide
 assistance to any competitor of Gaussian, Inc.  The licensee
 of this program is prohibited from giving any competitor of
 Gaussian, Inc. access to this program.  By using this program,
 the user acknowledges that Gaussian, Inc. is engaged in the
 business of creating and licensing software in the field of
 computational chemistry and represents and warrants to the
 licensee that it is not a competitor of Gaussian, Inc. and that
 it will not use this program in any manner prohibited above.
 ---------------------------------------------------------------
  

 Cite this work as:
 Gaussian 16, Revision C.01,
 M. J. Frisch, G. W. Trucks, H. B. Schlegel, G. E. Scuseria, 
 M. A. Robb, J. R. Cheeseman, G. Scalmani, V. Barone, 
 G. A. Petersson, H. Nakatsuji, X. Li, M. Caricato, A. V. Marenich, 
 J. Bloino, B. G. Janesko, R. Gomperts, B. Mennucci, H. P. Hratchian, 
 J. V. Ortiz, A. F. Izmaylov, J. L. Sonnenberg, D. Williams-Young, 
 F. Ding, F. Lipparini, F. Egidi, J. Goings, B. Peng, A. Petrone, 
 T. Henderson, D. Ranasinghe, V. G. Zakrzewski, J. Gao, N. Rega, 
 G. Zheng, W. Liang, M. Hada, M. Ehara, K. Toyota, R. Fukuda, 
 J. Hasegawa, M. Ishida, T. Nakajima, Y. Honda, O. Kitao, H. Nakai, 
 T. Vreven, K. Throssell, J. A. Montgomery, Jr., J. E. Peralta, 
 F. Ogliaro, M. J. Bearpark, J. J. Heyd, E. N. Brothers, K. N. Kudin, 
 V. N. Staroverov, T. A. Keith, R. Kobayashi, J. Normand, 
 K. Raghavachari, A. P. Rendell, J. C. Burant, S. S. Iyengar, 
 J. Tomasi, M. Cossi, J. M. Millam, M. Klene, C. Adamo, R. Cammi, 
 J. W. Ochterski, R. L. Martin, K. Morokuma, O. Farkas, 
 J. B. Foresman, and D. J. Fox, Gaussian, Inc., Wallingford CT, 2019.
 
 ******************************************
 Gaussian 16:  EM64W-G16RevC.01 30-May-2019
                14-Nov-2025 
 ******************************************
 %mem=6GB
 %chk=C:\Users\al6323\OneDrive - Imperial College London\Desktop\TSR20251114\TS_f
 reeze_opt+freq.chk
 %nprocshared=8
 Will use up to    8 processors via shared memory.
 Default route: MaxDisk=10GB
 ----------------------------------------------------------------------
 # opt=(calcfc,tight,modredundant,maxcycles=200,maxstep=5) freq rpm6 no
 symm geom=connectivity scf=(xqc,verytight)
 ----------------------------------------------------------------------
 1/6=200,7=10,8=5,10=4,18=120,19=15,26=1,38=1,57=2/1,3;
 2/9=110,12=2,15=1,17=6,18=5,40=1/2;
 3/5=2,25=1,41=3900000,71=2,116=1,140=1/1,2,3;
 4/35=1/1;
 5/5=2,8=3,13=1,17=3,35=1,38=5/2,8;
 8/6=4,10=90,11=11/1;
 11/6=1,8=1,9=11,15=111,16=1,31=1/1,2,10;
 10/6=1,13=1,31=1/2;
 6/7=2,8=2,9=2,10=2,28=1/1;
 7/10=1,25=1,30=1/1,2,3,16;
 1/6=200,7=10,8=5,10=4,18=20,19=15,26=1/3(2);
 2/9=110,15=1/2;
 99//99;
 2/9=110,15=1/2;
 3/5=2,25=1,41=3900000,71=1,116=1,135=20/1,2,3;
 4/5=5,16=3,35=1/1;
 5/5=2,8=3,13=1,17=3,35=1,38=5/2,8;
 7/30=1/1,2,3,16;
 1/6=200,7=10,8=5,18=20,19=15,26=1/3(-5);
 2/9=110,15=1/2;
 6/7=2,8=2,9=2,10=2,19=2,28=1/1;
 99/9=1/99;
 -------------------
 Title Card Required
 -------------------
 Symbolic Z-matrix:
 Charge =  0 Multiplicity = 1
 C                    -5.61262  -1.73423   0.09502 
 C                    -4.27247  -1.80484  -0.06107 
 C                    -3.41064  -0.52767  -0.11343 
 C                    -4.05366   0.7559    0.00692 
 C                    -5.58741   0.7734    0.18323 
 C                    -6.30676  -0.37224   0.224 
 H                    -1.63318  -1.71291  -0.35988 
 H                    -6.19271  -2.63271   0.12884 
 H                    -3.80209  -2.76181  -0.14971 
 C                    -2.03059  -0.72277  -0.27867 
 C                    -3.44811   2.06037  -0.01494 
 H                    -6.09279   1.71204   0.27522 
 H                    -7.36871  -0.32767   0.34725 
 H                    -4.10995   2.89438   0.09136 
 O                    -1.50513   2.48687  -0.22214 
 O                     0.43157   1.14515   0.69965 
 S                    -0.56703   1.17674  -0.37809 
 
 The following ModRedundant input section has been read:
 B      11      15 F                                                           
 B      10      17 F                                                           
 

 GradGradGradGradGradGradGradGradGradGradGradGradGradGradGradGradGradGrad
 Berny optimization.
 Initialization pass.
                           ----------------------------
                           !    Initial Parameters    !
                           ! (Angstroms and Degrees)  !
 --------------------------                            --------------------------
 ! Name  Definition              Value          Derivative Info.                !
 --------------------------------------------------------------------------------
 ! R1    R(1,2)                  1.3511         calculate D2E/DX2 analytically  !
 ! R2    R(1,6)                  1.5341         calculate D2E/DX2 analytically  !
 ! R3    R(1,8)                  1.07           calculate D2E/DX2 analytically  !
 ! R4    R(2,3)                  1.5416         calculate D2E/DX2 analytically  !
 ! R5    R(2,9)                  1.07           calculate D2E/DX2 analytically  !
 ! R6    R(3,4)                  1.4407         calculate D2E/DX2 analytically  !
 ! R7    R(3,10)                 1.4035         calculate D2E/DX2 analytically  !
 ! R8    R(4,5)                  1.544          calculate D2E/DX2 analytically  !
 ! R9    R(4,11)                 1.4383         calculate D2E/DX2 analytically  !
 ! R10   R(5,6)                  1.3534         calculate D2E/DX2 analytically  !
 ! R11   R(5,12)                 1.07           calculate D2E/DX2 analytically  !
 ! R12   R(6,13)                 1.07           calculate D2E/DX2 analytically  !
 ! R13   R(7,10)                 1.07           calculate D2E/DX2 analytically  !
 ! R14   R(10,17)                2.4            frozen, calculate D2E/DX2 analyt!
 ! R15   R(11,14)                1.07           calculate D2E/DX2 analytically  !
 ! R16   R(11,15)                2.0            frozen, calculate D2E/DX2 analyt!
 ! R17   R(15,17)                1.6189         calculate D2E/DX2 analytically  !
 ! R18   R(16,17)                1.4696         calculate D2E/DX2 analytically  !
 ! A1    A(2,1,6)              120.3265         calculate D2E/DX2 analytically  !
 ! A2    A(2,1,8)              119.8367         calculate D2E/DX2 analytically  !
 ! A3    A(6,1,8)              119.8367         calculate D2E/DX2 analytically  !
 ! A4    A(1,2,3)              121.0077         calculate D2E/DX2 analytically  !
 ! A5    A(1,2,9)              119.4962         calculate D2E/DX2 analytically  !
 ! A6    A(3,2,9)              119.4962         calculate D2E/DX2 analytically  !
 ! A7    A(2,3,4)              119.0622         calculate D2E/DX2 analytically  !
 ! A8    A(2,3,10)             116.0098         calculate D2E/DX2 analytically  !
 ! A9    A(4,3,10)             124.928          calculate D2E/DX2 analytically  !
 ! A10   A(3,4,5)              117.5822         calculate D2E/DX2 analytically  !
 ! A11   A(3,4,11)             128.2329         calculate D2E/DX2 analytically  !
 ! A12   A(5,4,11)             114.1849         calculate D2E/DX2 analytically  !
 ! A13   A(4,5,6)              121.4571         calculate D2E/DX2 analytically  !
 ! A14   A(4,5,12)             119.2714         calculate D2E/DX2 analytically  !
 ! A15   A(6,5,12)             119.2714         calculate D2E/DX2 analytically  !
 ! A16   A(1,6,5)              120.5642         calculate D2E/DX2 analytically  !
 ! A17   A(1,6,13)             119.7179         calculate D2E/DX2 analytically  !
 ! A18   A(5,6,13)             119.7179         calculate D2E/DX2 analytically  !
 ! A19   A(3,10,7)             120.1825         calculate D2E/DX2 analytically  !
 ! A20   A(3,10,17)            119.6351         calculate D2E/DX2 analytically  !
 ! A21   A(7,10,17)            120.1825         calculate D2E/DX2 analytically  !
 ! A22   A(4,11,14)            116.4223         calculate D2E/DX2 analytically  !
 ! A23   A(4,11,15)            127.1554         calculate D2E/DX2 analytically  !
 ! A24   A(14,11,15)           116.4223         calculate D2E/DX2 analytically  !
 ! A25   A(11,15,17)           113.6003         calculate D2E/DX2 analytically  !
 ! A26   A(10,17,15)           106.4483         calculate D2E/DX2 analytically  !
 ! A27   A(10,17,16)           111.5296         calculate D2E/DX2 analytically  !
 ! A28   A(15,17,16)           109.9075         calculate D2E/DX2 analytically  !
 ! D1    D(6,1,2,3)             -0.0002         calculate D2E/DX2 analytically  !
 ! D2    D(6,1,2,9)           -179.9999         calculate D2E/DX2 analytically  !
 ! D3    D(8,1,2,3)            179.9995         calculate D2E/DX2 analytically  !
 ! D4    D(8,1,2,9)             -0.0001         calculate D2E/DX2 analytically  !
 ! D5    D(2,1,6,5)             -0.0018         calculate D2E/DX2 analytically  !
 ! D6    D(2,1,6,13)           179.9985         calculate D2E/DX2 analytically  !
 ! D7    D(8,1,6,5)            179.9985         calculate D2E/DX2 analytically  !
 ! D8    D(8,1,6,13)            -0.0013         calculate D2E/DX2 analytically  !
 ! D9    D(1,2,3,4)              0.0035         calculate D2E/DX2 analytically  !
 ! D10   D(1,2,3,10)          -179.9972         calculate D2E/DX2 analytically  !
 ! D11   D(9,2,3,4)           -179.9968         calculate D2E/DX2 analytically  !
 ! D12   D(9,2,3,10)             0.0025         calculate D2E/DX2 analytically  !
 ! D13   D(2,3,4,5)             -0.0046         calculate D2E/DX2 analytically  !
 ! D14   D(2,3,4,11)           179.9934         calculate D2E/DX2 analytically  !
 ! D15   D(10,3,4,5)           179.9962         calculate D2E/DX2 analytically  !
 ! D16   D(10,3,4,11)           -0.0058         calculate D2E/DX2 analytically  !
 ! D17   D(2,3,10,7)            -0.0192         calculate D2E/DX2 analytically  !
 ! D18   D(2,3,10,17)          179.9802         calculate D2E/DX2 analytically  !
 ! D19   D(4,3,10,7)           179.98           calculate D2E/DX2 analytically  !
 ! D20   D(4,3,10,17)           -0.0205         calculate D2E/DX2 analytically  !
 ! D21   D(3,4,5,6)              0.0028         calculate D2E/DX2 analytically  !
 ! D22   D(3,4,5,12)          -179.9975         calculate D2E/DX2 analytically  !
 ! D23   D(11,4,5,6)          -179.9955         calculate D2E/DX2 analytically  !
 ! D24   D(11,4,5,12)            0.0042         calculate D2E/DX2 analytically  !
 ! D25   D(3,4,11,14)         -179.9906         calculate D2E/DX2 analytically  !
 ! D26   D(3,4,11,15)            0.0086         calculate D2E/DX2 analytically  !
 ! D27   D(5,4,11,14)            0.0075         calculate D2E/DX2 analytically  !
 ! D28   D(5,4,11,15)         -179.9933         calculate D2E/DX2 analytically  !
 ! D29   D(4,5,6,1)              0.0004         calculate D2E/DX2 analytically  !
 ! D30   D(4,5,6,13)          -179.9998         calculate D2E/DX2 analytically  !
 ! D31   D(12,5,6,1)          -179.9992         calculate D2E/DX2 analytically  !
 ! D32   D(12,5,6,13)            0.0005         calculate D2E/DX2 analytically  !
 ! D33   D(3,10,17,15)           0.0455         calculate D2E/DX2 analytically  !
 ! D34   D(3,10,17,16)         119.9222         calculate D2E/DX2 analytically  !
 ! D35   D(7,10,17,15)        -179.955          calculate D2E/DX2 analytically  !
 ! D36   D(7,10,17,16)         -60.0784         calculate D2E/DX2 analytically  !
 ! D37   D(4,11,15,17)           0.0243         calculate D2E/DX2 analytically  !
 ! D38   D(14,11,15,17)       -179.9765         calculate D2E/DX2 analytically  !
 ! D39   D(11,15,17,10)         -0.0384         calculate D2E/DX2 analytically  !
 ! D40   D(11,15,17,16)       -120.9608         calculate D2E/DX2 analytically  !
 --------------------------------------------------------------------------------
 Trust Radius=5.00D-02 FncErr=1.00D-07 GrdErr=1.00D-07 EigMax=2.50D+02 EigMin=1.00D-04
 Number of steps in this run=    102 maximum allowed number of steps=    102.
 GradGradGradGradGradGradGradGradGradGradGradGradGradGradGradGradGradGrad

                          Input orientation:                          
 ---------------------------------------------------------------------
 Center     Atomic      Atomic             Coordinates (Angstroms)
 Number     Number       Type             X           Y           Z
 ---------------------------------------------------------------------
      1          6           0       -5.612623   -1.734234    0.095019
      2          6           0       -4.272469   -1.804840   -0.061070
      3          6           0       -3.410638   -0.527673   -0.113426
      4          6           0       -4.053658    0.755903    0.006921
      5          6           0       -5.587415    0.773399    0.183229
      6          6           0       -6.306764   -0.372238    0.223998
      7          1           0       -1.633183   -1.712907   -0.359877
      8          1           0       -6.192709   -2.632709    0.128842
      9          1           0       -3.802092   -2.761808   -0.149709
     10          6           0       -2.030587   -0.722768   -0.278668
     11          6           0       -3.448110    2.060374   -0.014940
     12          1           0       -6.092786    1.712035    0.275220
     13          1           0       -7.368707   -0.327667    0.347246
     14          1           0       -4.109951    2.894381    0.091358
     15          8           0       -1.505131    2.486870   -0.222141
     16          8           0        0.431573    1.145150    0.699646
     17         16           0       -0.567030    1.176736   -0.378091
 ---------------------------------------------------------------------
                    Distance matrix (angstroms):
                    1          2          3          4          5
     1  C    0.000000
     2  C    1.351060   0.000000
     3  C    2.519520   1.541638   0.000000
     4  C    2.939204   2.570974   1.440669   0.000000
     5  C    2.509311   2.904493   2.553263   1.543956   0.000000
     6  C    1.534112   2.504389   2.919856   2.529093   1.353370
     7  H    4.005413   2.657737   2.150550   3.476818   4.702407
     8  H    1.070000   2.099704   3.497112   4.009127   3.459901
     9  H    2.096145   1.070000   2.268460   3.530172   3.974408
    10  C    3.740814   2.498852   1.403534   2.522071   3.886243
    11  C    4.369926   3.952413   2.590191   1.438335   2.504435
    12  H    3.484222   3.974299   3.515858   2.268087   1.070000
    13  H    2.264041   3.454772   3.989803   3.504211   2.100536
    14  H    4.866428   4.704500   3.498776   2.140884   2.586485
    15  O    5.898288   5.109097   3.567947   3.089288   4.445823
    16  O    6.722257   5.604385   4.268724   4.555071   6.052528
    17  S    5.844279   4.766610   3.325833   3.532974   5.067743
                    6          7          8          9         10
     6  C    0.000000
     7  H    4.897005   0.000000
     8  H    2.265346   4.676982   0.000000
     9  H    3.481821   2.418374   2.410250   0.000000
    10  C    4.319864   1.070000   4.597521   2.704172   0.000000
    11  C    3.761195   4.201261   5.438614   4.837035   3.134454
    12  H    2.095855   5.658766   4.348358   5.044117   4.768282
    13  H    1.070000   5.942655   2.596900   4.346579   5.389192
    14  H    3.938830   5.250247   5.906608   5.669689   4.188609
    15  O    5.606176   4.203986   6.950299   5.729738   3.252856
    16  O    6.923430   3.681616   7.647166   5.823199   3.241674
    17  S    5.975481   3.080106   6.813011   5.101952   2.400000
                   11         12         13         14         15
    11  C    0.000000
    12  H    2.683252   0.000000
    13  H    4.604888   2.406979   0.000000
    14  H    1.070000   2.315898   4.589832   0.000000
    15  O    2.000000   4.679136   6.528961   2.655077   0.000000
    16  O    4.049717   6.562679   7.945926   4.904616   2.529966
    17  S    3.035345   5.589932   7.003724   3.965220   1.618890
                   16         17
    16  O    0.000000
    17  S    1.469600   0.000000
 Symmetry turned off by external request.
 Stoichiometry    C8H6O2S
 Framework group  C1[X(C8H6O2S)]
 Deg. of freedom    45
 Full point group                 C1      NOp   1
 Rotational constants (GHZ):           2.3134498           0.5488263           0.4558200
 Standard basis: VSTO-6G (5D, 7F)
    55 basis functions,   336 primitive gaussians,    56 cartesian basis functions
    28 alpha electrons       28 beta electrons
       nuclear repulsion energy       304.7261199276 Hartrees.
 Integral buffers will be    131072 words long.
 Regular integral format.
 Two-electron integral symmetry is turned off.
 Do NDO integrals.
 One-electron integrals computed using PRISM.
 NBasis=    55 RedAO= F EigKep=  0.00D+00  NBF=    55
 NBsUse=    55 1.00D-04 EigRej=  0.00D+00 NBFU=    55
 Nonelectrostatic core Hamiltonian diagonalized for initial guess.
 Keep J ints in memory in canonical form, NReq=1858957.
 Overlap will be assumed to be unity.
 Requested convergence on RMS density matrix=1.00D-08 within  32 cycles.
 Requested convergence on MAX density matrix=1.00D-06.
 Requested convergence on             energy=1.00D-06.
 No special actions if energy rises.
 SCF Done:  E(RPM6) =  0.213835411820     A.U. after   25 cycles
            NFock= 24  Conv=0.71D-08     -V/T= 1.0020
 QCSCF skips out because SCF is already converged.
 Range of M.O.s used for correlation:     1    55
 NBasis=    55 NAE=    28 NBE=    28 NFC=     0 NFV=     0
 NROrb=     55 NOA=    28 NOB=    28 NVA=    27 NVB=    27
 Symmetrizing basis deriv contribution to polar:
 IMax=3 JMax=2 DiffMx= 0.00D+00
 G2DrvN: will do    18 centers at a time, making    1 passes.
 Calling FoFCou, ICntrl=  3107 FMM=F I1Cent=   0 AccDes= 0.00D+00.
 End of G2Drv F.D. properties file   721 does not exist.
 End of G2Drv F.D. properties file   722 does not exist.
 End of G2Drv F.D. properties file   788 does not exist.
          IDoAtm=11111111111111111
          Differentiating once with respect to nuclear coordinates.
          Electric field/nuclear overlap derivatives assumed to be zero.
 Keep J ints in memory in canonical form, NReq=1860754.
          There are    54 degrees of freedom in the 1st order CPHF.  IDoFFX=5 NUNeed=    54.
 LinEq1:  Iter=  0 NonCon=    51 RMS=1.31D-02 Max=1.20D-01 NDo=    51
 AX will form    54 AO Fock derivatives at one time.
 LinEq1:  Iter=  1 NonCon=    51 RMS=4.93D-03 Max=4.69D-02 NDo=    54
 LinEq1:  Iter=  2 NonCon=    51 RMS=1.33D-03 Max=1.44D-02 NDo=    54
 LinEq1:  Iter=  3 NonCon=    51 RMS=3.61D-04 Max=5.71D-03 NDo=    54
 LinEq1:  Iter=  4 NonCon=    51 RMS=1.12D-04 Max=1.64D-03 NDo=    54
 LinEq1:  Iter=  5 NonCon=    51 RMS=3.92D-05 Max=3.79D-04 NDo=    54
 LinEq1:  Iter=  6 NonCon=    51 RMS=1.13D-05 Max=9.26D-05 NDo=    54
 LinEq1:  Iter=  7 NonCon=    51 RMS=2.44D-06 Max=2.21D-05 NDo=    54
 LinEq1:  Iter=  8 NonCon=    51 RMS=5.72D-07 Max=6.36D-06 NDo=    54
 LinEq1:  Iter=  9 NonCon=    38 RMS=1.55D-07 Max=1.59D-06 NDo=    54
 LinEq1:  Iter= 10 NonCon=    22 RMS=4.49D-08 Max=5.88D-07 NDo=    38
 LinEq1:  Iter= 11 NonCon=     4 RMS=1.14D-08 Max=1.09D-07 NDo=    22
 LinEq1:  Iter= 12 NonCon=     0 RMS=2.59D-09 Max=2.43D-08 NDo=     4
 Linear equations converged to 1.000D-08 1.000D-07 after    12 iterations.
 End of Minotr F.D. properties file   721 does not exist.
 End of Minotr F.D. properties file   722 does not exist.
 End of Minotr F.D. properties file   788 does not exist.

 **********************************************************************

            Population analysis using the SCF Density.

 **********************************************************************

 Alpha  occ. eigenvalues --   -1.13935  -1.06972  -1.01107  -0.98613  -0.97310
 Alpha  occ. eigenvalues --   -0.89049  -0.79602  -0.78158  -0.76854  -0.68534
 Alpha  occ. eigenvalues --   -0.63220  -0.59798  -0.58361  -0.56343  -0.53797
 Alpha  occ. eigenvalues --   -0.52659  -0.51575  -0.50478  -0.48962  -0.48383
 Alpha  occ. eigenvalues --   -0.45532  -0.44463  -0.42318  -0.40196  -0.39556
 Alpha  occ. eigenvalues --   -0.39099  -0.32278  -0.31339
 Alpha virt. eigenvalues --   -0.05988  -0.03983  -0.02841   0.01261   0.02657
 Alpha virt. eigenvalues --    0.03499   0.04122   0.07760   0.11286   0.12184
 Alpha virt. eigenvalues --    0.13616   0.14809   0.15567   0.17998   0.18505
 Alpha virt. eigenvalues --    0.19073   0.19119   0.19414   0.20476   0.20577
 Alpha virt. eigenvalues --    0.21286   0.21411   0.21575   0.22010   0.22198
 Alpha virt. eigenvalues --    0.23442   0.25433
          Condensed to atoms (all electrons):
               1          2          3          4          5          6
     1  C    4.222153   0.000000   0.000000   0.000000   0.000000   0.000000
     2  C    0.000000   4.074646   0.000000   0.000000   0.000000   0.000000
     3  C    0.000000   0.000000   4.120058   0.000000   0.000000   0.000000
     4  C    0.000000   0.000000   0.000000   3.931265   0.000000   0.000000
     5  C    0.000000   0.000000   0.000000   0.000000   4.230231   0.000000
     6  C    0.000000   0.000000   0.000000   0.000000   0.000000   4.037909
     7  H    0.000000   0.000000   0.000000   0.000000   0.000000   0.000000
     8  H    0.000000   0.000000   0.000000   0.000000   0.000000   0.000000
     9  H    0.000000   0.000000   0.000000   0.000000   0.000000   0.000000
    10  C    0.000000   0.000000   0.000000   0.000000   0.000000   0.000000
    11  C    0.000000   0.000000   0.000000   0.000000   0.000000   0.000000
    12  H    0.000000   0.000000   0.000000   0.000000   0.000000   0.000000
    13  H    0.000000   0.000000   0.000000   0.000000   0.000000   0.000000
    14  H    0.000000   0.000000   0.000000   0.000000   0.000000   0.000000
    15  O    0.000000   0.000000   0.000000   0.000000   0.000000   0.000000
    16  O    0.000000   0.000000   0.000000   0.000000   0.000000   0.000000
    17  S    0.000000   0.000000   0.000000   0.000000   0.000000   0.000000
               7          8          9         10         11         12
     1  C    0.000000   0.000000   0.000000   0.000000   0.000000   0.000000
     2  C    0.000000   0.000000   0.000000   0.000000   0.000000   0.000000
     3  C    0.000000   0.000000   0.000000   0.000000   0.000000   0.000000
     4  C    0.000000   0.000000   0.000000   0.000000   0.000000   0.000000
     5  C    0.000000   0.000000   0.000000   0.000000   0.000000   0.000000
     6  C    0.000000   0.000000   0.000000   0.000000   0.000000   0.000000
     7  H    0.865924   0.000000   0.000000   0.000000   0.000000   0.000000
     8  H    0.000000   0.847601   0.000000   0.000000   0.000000   0.000000
     9  H    0.000000   0.000000   0.858260   0.000000   0.000000   0.000000
    10  C    0.000000   0.000000   0.000000   4.322292   0.000000   0.000000
    11  C    0.000000   0.000000   0.000000   0.000000   3.948997   0.000000
    12  H    0.000000   0.000000   0.000000   0.000000   0.000000   0.845804
    13  H    0.000000   0.000000   0.000000   0.000000   0.000000   0.000000
    14  H    0.000000   0.000000   0.000000   0.000000   0.000000   0.000000
    15  O    0.000000   0.000000   0.000000   0.000000   0.000000   0.000000
    16  O    0.000000   0.000000   0.000000   0.000000   0.000000   0.000000
    17  S    0.000000   0.000000   0.000000   0.000000   0.000000   0.000000
              13         14         15         16         17
     1  C    0.000000   0.000000   0.000000   0.000000   0.000000
     2  C    0.000000   0.000000   0.000000   0.000000   0.000000
     3  C    0.000000   0.000000   0.000000   0.000000   0.000000
     4  C    0.000000   0.000000   0.000000   0.000000   0.000000
     5  C    0.000000   0.000000   0.000000   0.000000   0.000000
     6  C    0.000000   0.000000   0.000000   0.000000   0.000000
     7  H    0.000000   0.000000   0.000000   0.000000   0.000000
     8  H    0.000000   0.000000   0.000000   0.000000   0.000000
     9  H    0.000000   0.000000   0.000000   0.000000   0.000000
    10  C    0.000000   0.000000   0.000000   0.000000   0.000000
    11  C    0.000000   0.000000   0.000000   0.000000   0.000000
    12  H    0.000000   0.000000   0.000000   0.000000   0.000000
    13  H    0.857301   0.000000   0.000000   0.000000   0.000000
    14  H    0.000000   0.821990   0.000000   0.000000   0.000000
    15  O    0.000000   0.000000   6.614876   0.000000   0.000000
    16  O    0.000000   0.000000   0.000000   6.605134   0.000000
    17  S    0.000000   0.000000   0.000000   0.000000   4.795560
 Mulliken charges:
               1
     1  C   -0.222153
     2  C   -0.074646
     3  C   -0.120058
     4  C    0.068735
     5  C   -0.230231
     6  C   -0.037909
     7  H    0.134076
     8  H    0.152399
     9  H    0.141740
    10  C   -0.322292
    11  C    0.051003
    12  H    0.154196
    13  H    0.142699
    14  H    0.178010
    15  O   -0.614876
    16  O   -0.605134
    17  S    1.204440
 Sum of Mulliken charges =   0.00000
 Mulliken charges with hydrogens summed into heavy atoms:
               1
     1  C   -0.069754
     2  C    0.067094
     3  C   -0.120058
     4  C    0.068735
     5  C   -0.076035
     6  C    0.104790
    10  C   -0.188215
    11  C    0.229013
    15  O   -0.614876
    16  O   -0.605134
    17  S    1.204440
 APT charges:
               1
     1  C   -0.222153
     2  C   -0.074646
     3  C   -0.120058
     4  C    0.068735
     5  C   -0.230231
     6  C   -0.037909
     7  H    0.134076
     8  H    0.152399
     9  H    0.141740
    10  C   -0.322292
    11  C    0.051003
    12  H    0.154196
    13  H    0.142699
    14  H    0.178010
    15  O   -0.614876
    16  O   -0.605134
    17  S    1.204440
 Sum of APT charges =   0.00000
 APT charges with hydrogens summed into heavy atoms:
               1
     1  C   -0.069754
     2  C    0.067094
     3  C   -0.120058
     4  C    0.068735
     5  C   -0.076035
     6  C    0.104790
    10  C   -0.188215
    11  C    0.229013
    15  O   -0.614876
    16  O   -0.605134
    17  S    1.204440
 Charge=              0.0000 electrons
 Dipole moment (field-independent basis, Debye):
    X=             -4.2771    Y=             -1.4851    Z=             -2.3386  Tot=              5.0959
 N-N= 3.047261199276D+02 E-N=-4.660796096635D+02  KE=-1.075751439276D+02
  Exact polarizability:       0.000       0.000       0.000       0.000       0.000       0.000
 Approx polarizability:     152.441      19.027     130.822       0.613       2.161      25.918
 Calling FoFJK, ICntrl=    100127 FMM=F ISym2X=0 I1Cent= 0 IOpClX= 0 NMat=1 NMatS=1 NMatT=0.
 -------------------------------------------------------------------
 Center     Atomic                   Forces (Hartrees/Bohr)
 Number     Number              X              Y              Z
 -------------------------------------------------------------------
      1        6          -0.005894418    0.047241024    0.002306330
      2        6           0.000464463    0.048141238    0.001031535
      3        6           0.059574174   -0.044435335   -0.008511829
      4        6           0.020119277    0.077330812    0.001297447
      5        6           0.037977240   -0.016501446   -0.005365563
      6        6           0.041751302   -0.031679970   -0.005953207
      7        1           0.009526222    0.009846175   -0.000633718
      8        1          -0.009904870   -0.000934599    0.001217414
      9        1           0.010119388   -0.002771829   -0.001166816
     10        6          -0.050468540    0.052330240    0.012644161
     11        6          -0.001852434   -0.082646992   -0.002625555
     12        1           0.002486068    0.009536461    0.000149636
     13        1          -0.007531190   -0.006639424    0.000684208
     14        1           0.032770983    0.016882522   -0.002614730
     15        8          -0.091756951   -0.049976335    0.004970231
     16        8          -0.021815351   -0.009684426   -0.018309828
     17       16          -0.025565363   -0.016038117    0.020880283
 -------------------------------------------------------------------
 Cartesian Forces:  Max     0.091756951 RMS     0.030851532
 FormGI is forming the generalized inverse of G from B-inverse, IUseBI=4.

 GradGradGradGradGradGradGradGradGradGradGradGradGradGradGradGradGradGrad
 Berny optimization.
 Internal  Forces:  Max     0.104571667 RMS     0.023496867
 Search for a local minimum.
 Step number   1 out of a maximum of  102
 All quantities printed in internal units (Hartrees-Bohrs-Radians)
 Mixed Optimization -- RFO/linear search
 Second derivative matrix not updated -- analytic derivatives used.
 ITU=  0
     Eigenvalues ---   -0.00310   0.00036   0.00347   0.00464   0.00762
     Eigenvalues ---    0.00953   0.01484   0.01700   0.02065   0.02158
     Eigenvalues ---    0.02332   0.02798   0.02988   0.03966   0.04803
     Eigenvalues ---    0.06016   0.07019   0.07622   0.09442   0.09724
     Eigenvalues ---    0.10238   0.10560   0.10617   0.11397   0.13478
     Eigenvalues ---    0.13894   0.15027   0.20888   0.23372   0.24680
     Eigenvalues ---    0.24839   0.25919   0.26641   0.28350   0.28506
     Eigenvalues ---    0.29302   0.29807   0.33843   0.43260   0.44568
     Eigenvalues ---    0.51086   0.64334   0.687911000.000001000.00000
     Eigenvalues --- 1000.000001000.000001000.000001000.000001000.00000
     Eigenvalues --- 1000.000001000.000001000.000001000.000001000.00000
     Eigenvalues --- 1000.000001000.000001000.000001000.000001000.00000
     Eigenvalues --- 1000.000001000.000001000.000001000.000001000.00000
     Eigenvalues --- 1000.000001000.000001000.000001000.000001000.00000
     Eigenvalues --- 1000.000001000.000001000.000001000.000001000.00000
     Eigenvalues --- 1000.000001000.000001000.000001000.000001000.00000
     Eigenvalues --- 1000.000001000.000001000.000001000.000001000.00000
     Eigenvalues --- 1000.00000
 RFO step:  Lambda=-9.28338170D-02 EMin=-3.09976335D-03
 Linear search not attempted -- first point.
 Maximum step size (   0.050) exceeded in Quadratic search.
    -- Step size scaled by   0.081
 Iteration  1 RMS(Cart)=  0.01259268 RMS(Int)=  0.00014827
 Iteration  2 RMS(Cart)=  0.00015722 RMS(Int)=  0.00005482
 Iteration  3 RMS(Cart)=  0.00000002 RMS(Int)=  0.00005482
 Iteration  1 RMS(Cart)=  0.00000110 RMS(Int)=  0.00000009
 Iteration  2 RMS(Cart)=  0.00000001 RMS(Int)=  0.00000009
 Variable       Old X    -DE/DX   Delta X   Delta X   Delta X     New X
                                 (Linear)    (Quad)   (Total)
    R1        2.55313  -0.00988   0.00000  -0.00055  -0.00055   2.55258
    R2        2.89905  -0.05465   0.00000  -0.01171  -0.01170   2.88735
    R3        2.02201   0.00619   0.00000   0.00197   0.00197   2.02397
    R4        2.91327  -0.04750   0.00000  -0.00831  -0.00831   2.90496
    R5        2.02201   0.00702   0.00000   0.00219   0.00219   2.02419
    R6        2.72247  -0.00454   0.00000   0.00455   0.00456   2.72703
    R7        2.65229  -0.08259   0.00000  -0.01314  -0.01313   2.63917
    R8        2.91765  -0.04946   0.00000  -0.00808  -0.00809   2.90957
    R9        2.71806  -0.10457   0.00000  -0.02066  -0.02065   2.69741
   R10        2.55750  -0.01291   0.00000  -0.00087  -0.00087   2.55663
   R11        2.02201   0.00720   0.00000   0.00205   0.00205   2.02406
   R12        2.02201   0.00728   0.00000   0.00230   0.00230   2.02431
   R13        2.02201  -0.00553   0.00000  -0.00143  -0.00143   2.02058
   R14        4.53534  -0.07042   0.00000   0.00000   0.00000   4.53534
   R15        2.02201  -0.00737   0.00000  -0.00131  -0.00131   2.02070
   R16        3.77945  -0.10007   0.00000   0.00000   0.00000   3.77945
   R17        3.05926  -0.02964   0.00000  -0.01036  -0.01038   3.04888
   R18        2.77714  -0.02804   0.00000  -0.00409  -0.00409   2.77306
    A1        2.10009   0.00017   0.00000   0.00007   0.00008   2.10017
    A2        2.09155   0.00788   0.00000   0.00196   0.00195   2.09350
    A3        2.09155  -0.00805   0.00000  -0.00203  -0.00203   2.08952
    A4        2.11198   0.00235   0.00000   0.00185   0.00185   2.11383
    A5        2.08560   0.00679   0.00000   0.00148   0.00148   2.08709
    A6        2.08560  -0.00914   0.00000  -0.00333  -0.00333   2.08227
    A7        2.07803  -0.00599   0.00000  -0.00280  -0.00281   2.07522
    A8        2.02475   0.00444   0.00000   0.00205   0.00208   2.02683
    A9        2.18041   0.00155   0.00000   0.00075   0.00073   2.18113
   A10        2.05220   0.00220   0.00000  -0.00009  -0.00010   2.05210
   A11        2.23809   0.01028   0.00000   0.00196   0.00193   2.24002
   A12        1.99290  -0.01248   0.00000  -0.00187  -0.00184   1.99106
   A13        2.11983  -0.00129   0.00000   0.00023   0.00022   2.12004
   A14        2.08168  -0.00615   0.00000  -0.00193  -0.00192   2.07976
   A15        2.08168   0.00744   0.00000   0.00170   0.00171   2.08339
   A16        2.10424   0.00256   0.00000   0.00074   0.00074   2.10499
   A17        2.08947  -0.00831   0.00000  -0.00212  -0.00212   2.08735
   A18        2.08947   0.00575   0.00000   0.00138   0.00138   2.09085
   A19        2.09758   0.01536   0.00000   0.00944   0.00947   2.10705
   A20        2.08803  -0.00535   0.00000   0.00126   0.00120   2.08922
   A21        2.09758  -0.01002   0.00000  -0.01070  -0.01067   2.08691
   A22        2.03195   0.03996   0.00000   0.02219   0.02218   2.05413
   A23        2.21928  -0.00670   0.00000  -0.00496  -0.00507   2.21420
   A24        2.03195  -0.03326   0.00000  -0.01723  -0.01724   2.01472
   A25        1.98270   0.01510   0.00000   0.00831   0.00814   1.99084
   A26        1.85787  -0.01488   0.00000  -0.00729  -0.00745   1.85043
   A27        1.94656  -0.01143   0.00000  -0.00907  -0.00902   1.93754
   A28        1.91825   0.01232   0.00000   0.01078   0.01074   1.92899
    D1        0.00000   0.00011   0.00000  -0.00008  -0.00006  -0.00006
    D2       -3.14159   0.00000   0.00000  -0.00083  -0.00080   3.14079
    D3        3.14158   0.00014   0.00000   0.00042   0.00043  -3.14117
    D4        0.00000   0.00004   0.00000  -0.00033  -0.00032  -0.00032
    D5       -0.00003   0.00002   0.00000   0.00218   0.00218   0.00215
    D6        3.14157   0.00004   0.00000   0.00200   0.00199  -3.13963
    D7        3.14157  -0.00002   0.00000   0.00168   0.00170  -3.13992
    D8       -0.00002   0.00000   0.00000   0.00150   0.00151   0.00149
    D9        0.00006  -0.00019   0.00000  -0.00516  -0.00515  -0.00509
   D10       -3.14154   0.00019   0.00000  -0.00737  -0.00732   3.13432
   D11       -3.14154  -0.00008   0.00000  -0.00441  -0.00441   3.13724
   D12        0.00004   0.00029   0.00000  -0.00662  -0.00658  -0.00654
   D13       -0.00008   0.00014   0.00000   0.00789   0.00787   0.00779
   D14        3.14148   0.00001   0.00000   0.00322   0.00321  -3.13850
   D15        3.14153  -0.00027   0.00000   0.01032   0.01024  -3.13142
   D16       -0.00010  -0.00039   0.00000   0.00565   0.00558   0.00548
   D17       -0.00034   0.00032   0.00000  -0.00083  -0.00082  -0.00116
   D18        3.14125  -0.00091   0.00000   0.00259   0.00257  -3.13937
   D19        3.14124   0.00072   0.00000  -0.00319  -0.00314   3.13811
   D20       -0.00036  -0.00052   0.00000   0.00023   0.00025  -0.00011
   D21        0.00005  -0.00002   0.00000  -0.00601  -0.00599  -0.00594
   D22       -3.14155  -0.00011   0.00000  -0.00519  -0.00518   3.13645
   D23       -3.14151   0.00009   0.00000  -0.00198  -0.00198   3.13969
   D24        0.00007   0.00000   0.00000  -0.00117  -0.00118  -0.00111
   D25       -3.14143   0.00102   0.00000  -0.00762  -0.00776   3.13399
   D26        0.00015  -0.00038   0.00000   0.01065   0.01059   0.01074
   D27        0.00013   0.00090   0.00000  -0.01216  -0.01229  -0.01216
   D28       -3.14148  -0.00050   0.00000   0.00611   0.00606  -3.13541
   D29        0.00001  -0.00006   0.00000   0.00089   0.00088   0.00089
   D30       -3.14159  -0.00008   0.00000   0.00107   0.00107  -3.14052
   D31       -3.14158   0.00003   0.00000   0.00008   0.00008  -3.14150
   D32        0.00001   0.00001   0.00000   0.00026   0.00026   0.00027
   D33        0.00079   0.00224   0.00000  -0.02256  -0.02244  -0.02164
   D34        2.09304   0.00144   0.00000  -0.01916  -0.01909   2.07395
   D35       -3.14081   0.00101   0.00000  -0.01915  -0.01909   3.12329
   D36       -1.04857   0.00021   0.00000  -0.01574  -0.01574  -1.06431
   D37        0.00042   0.00238   0.00000  -0.03453  -0.03454  -0.03412
   D38       -3.14118   0.00098   0.00000  -0.01626  -0.01655   3.12545
   D39       -0.00067  -0.00252   0.00000   0.03115   0.03111   0.03044
   D40       -2.11116   0.01322   0.00000   0.04038   0.04045  -2.07072
         Item               Value     Threshold  Converged?
 Maximum Force            0.104638     0.000015     NO 
 RMS     Force            0.019629     0.000010     NO 
 Maximum Displacement     0.052615     0.000060     NO 
 RMS     Displacement     0.012598     0.000040     NO 
 Predicted change in Energy=-7.614983D-03
 GradGradGradGradGradGradGradGradGradGradGradGradGradGradGradGradGradGrad

                          Input orientation:                          
 ---------------------------------------------------------------------
 Center     Atomic      Atomic             Coordinates (Angstroms)
 Number     Number       Type             X           Y           Z
 ---------------------------------------------------------------------
      1          6           0       -5.609898   -1.729342    0.094004
      2          6           0       -4.270677   -1.800105   -0.067416
      3          6           0       -3.408409   -0.528483   -0.118171
      4          6           0       -4.053246    0.756757    0.003579
      5          6           0       -5.581598    0.772653    0.189298
      6          6           0       -6.300014   -0.373009    0.230554
      7          1           0       -1.628260   -1.708456   -0.359750
      8          1           0       -6.192655   -2.627353    0.127140
      9          1           0       -3.799216   -2.757345   -0.161187
     10          6           0       -2.034843   -0.722796   -0.279453
     11          6           0       -3.455868    2.052944   -0.019511
     12          1           0       -6.085707    1.712613    0.287124
     13          1           0       -7.362549   -0.330672    0.359912
     14          1           0       -4.101569    2.899545    0.079269
     15          8           0       -1.514469    2.475445   -0.248561
     16          8           0        0.404683    1.141040    0.727489
     17         16           0       -0.567984    1.174567   -0.370768
 ---------------------------------------------------------------------
                    Distance matrix (angstroms):
                    1          2          3          4          5
     1  C    0.000000
     2  C    1.350769   0.000000
     3  C    2.516672   1.537240   0.000000
     4  C    2.934625   2.567072   1.443080   0.000000
     5  C    2.503968   2.898879   2.551518   1.539676   0.000000
     6  C    1.527922   2.498719   2.916705   2.525046   1.352910
     7  H    4.007464   2.660118   2.149332   3.477045   4.699600
     8  H    1.071041   2.101473   3.495348   4.005563   3.455039
     9  H    2.097733   1.071157   2.263274   3.527122   3.969964
    10  C    3.732777   2.490885   1.396586   2.518559   3.877573
    11  C    4.354126   3.938553   2.583747   1.427409   2.490276
    12  H    3.480049   3.969789   3.514926   2.263837   1.071084
    13  H    2.258046   3.449857   3.987847   3.501565   2.101957
    14  H    4.868456   4.704979   3.502975   2.144669   2.593504
    15  O    5.879636   5.090169   3.553532   3.076175   4.430887
    16  O    6.694444   5.580430   4.247601   4.532643   6.021704
    17  S    5.836917   4.759268   3.321475   3.530121   5.060784
                    6          7          8          9         10
     6  C    0.000000
     7  H    4.894606   0.000000
     8  H    2.259267   4.681360   0.000000
     9  H    3.477429   2.419224   2.414245   0.000000
    10  C    4.309774   1.069244   4.591302   2.695624   0.000000
    11  C    3.746592   4.195717   5.423716   4.824608   3.129156
    12  H    2.097367   5.656058   4.344231   5.040789   4.760434
    13  H    1.071217   5.941235   2.587969   4.342537   5.380242
    14  H    3.945334   5.248206   5.909445   5.670066   4.185857
    15  O    5.589694   4.186924   6.932901   5.710498   3.240446
    16  O    6.891463   3.665320   7.621422   5.801717   3.230960
    17  S    5.967642   3.071828   6.807307   5.093596   2.400000
                   11         12         13         14         15
    11  C    0.000000
    12  H    2.669439   0.000000
    13  H    4.592139   2.410527   0.000000
    14  H    1.069309   2.321382   4.598593   0.000000
    15  O    2.000000   4.665306   6.514950   2.642048   0.000000
    16  O    4.036513   6.530374   7.913972   4.880455   2.533073
    17  S    3.038882   5.582794   6.997554   3.957816   1.613398
                   16         17
    16  O    0.000000
    17  S    1.467438   0.000000
 Symmetry turned off by external request.
 Stoichiometry    C8H6O2S
 Framework group  C1[X(C8H6O2S)]
 Deg. of freedom    45
 Full point group                 C1      NOp   1
 Rotational constants (GHZ):           2.3154505           0.5516318           0.4585124
 Standard basis: VSTO-6G (5D, 7F)
    55 basis functions,   336 primitive gaussians,    56 cartesian basis functions
    28 alpha electrons       28 beta electrons
       nuclear repulsion energy       305.1500337265 Hartrees.
 Integral buffers will be    131072 words long.
 Regular integral format.
 Two-electron integral symmetry is turned off.
 Do NDO integrals.
 One-electron integrals computed using PRISM.
 NBasis=    55 RedAO= F EigKep=  0.00D+00  NBF=    55
 NBsUse=    55 1.00D-04 EigRej=  0.00D+00 NBFU=    55
 Initial guess from the checkpoint file:  "C:\Users\al6323\OneDrive - Imperial College London\Desktop\TSR20251114\TS_freeze_opt+freq.chk"
 B after Tr=    -0.005035   -0.002210    0.015907
         Rot=    0.999999    0.001122    0.001107   -0.000064 Ang=   0.18 deg.
 Keep J ints in memory in canonical form, NReq=1858957.
 Overlap will be assumed to be unity.
 Requested convergence on RMS density matrix=1.00D-08 within  32 cycles.
 Requested convergence on MAX density matrix=1.00D-06.
 Requested convergence on             energy=1.00D-06.
 No special actions if energy rises.
 SCF Done:  E(RPM6) =  0.206224108474     A.U. after   18 cycles
            NFock= 17  Conv=0.85D-08     -V/T= 1.0019
 QCSCF skips out because SCF is already converged.
 Calling FoFJK, ICntrl=      2127 FMM=F ISym2X=0 I1Cent= 0 IOpClX= 0 NMat=1 NMatS=1 NMatT=0.
 -------------------------------------------------------------------
 Center     Atomic                   Forces (Hartrees/Bohr)
 Number     Number              X              Y              Z
 -------------------------------------------------------------------
      1        6          -0.005611266    0.044286752    0.002389328
      2        6           0.000354811    0.045213071    0.001115034
      3        6           0.055812721   -0.041895110   -0.007837243
      4        6           0.019197416    0.072452929    0.001303816
      5        6           0.035468534   -0.015398407   -0.005307423
      6        6           0.039109925   -0.029837500   -0.005917674
      7        1           0.009365393    0.009544610   -0.000642968
      8        1          -0.009344546   -0.000900844    0.001180105
      9        1           0.009575198   -0.002627882   -0.001159020
     10        6          -0.044833825    0.052050134    0.011769755
     11        6           0.001852097   -0.076256455   -0.003386461
     12        1           0.002340223    0.009002312    0.000170294
     13        1          -0.007130957   -0.006256054    0.000676780
     14        1           0.031948565    0.015965246   -0.002719342
     15        8          -0.091106982   -0.048285698    0.006258527
     16        8          -0.020150999   -0.009486478   -0.017374839
     17       16          -0.026846308   -0.017570627    0.019481330
 -------------------------------------------------------------------
 Cartesian Forces:  Max     0.091106982 RMS     0.029361886

 GradGradGradGradGradGradGradGradGradGradGradGradGradGradGradGradGradGrad
 Berny optimization.
 Using GEDIIS/GDIIS optimizer.
 FormGI is forming the generalized inverse of G from B-inverse, IUseBI=4.
 Internal  Forces:  Max     0.099064032 RMS     0.022478159
 Search for a local minimum.
 Step number   2 out of a maximum of  102
 All quantities printed in internal units (Hartrees-Bohrs-Radians)
 Mixed Optimization -- RFO/linear search
 Update second derivatives using D2CorX and points    1    2
 DE= -7.61D-03 DEPred=-7.61D-03 R= 1.00D+00
 TightC=F SS=  1.41D+00  RLast= 9.38D-02 DXNew= 8.4090D-02 2.8140D-01
 Trust test= 1.00D+00 RLast= 9.38D-02 DXMaxT set to 8.41D-02
 ITU=  1  0
 Use linear search instead of GDIIS.
 Linear search step of   0.100 exceeds DXMaxT=   0.084 but not scaled.
 Quartic linear search produced a step of  2.00000.
 Iteration  1 RMS(Cart)=  0.02499801 RMS(Int)=  0.00063096
 Iteration  2 RMS(Cart)=  0.00061445 RMS(Int)=  0.00032974
 Iteration  3 RMS(Cart)=  0.00000026 RMS(Int)=  0.00032974
 Iteration  1 RMS(Cart)=  0.00000675 RMS(Int)=  0.00000054
 Iteration  2 RMS(Cart)=  0.00000007 RMS(Int)=  0.00000055
 Variable       Old X    -DE/DX   Delta X   Delta X   Delta X     New X
                                 (Linear)    (Quad)   (Total)
    R1        2.55258  -0.00910  -0.00110   0.00000  -0.00107   2.55151
    R2        2.88735  -0.05124  -0.02340   0.00000  -0.02335   2.86400
    R3        2.02397   0.00588   0.00393   0.00000   0.00393   2.02791
    R4        2.90496  -0.04445  -0.01662   0.00000  -0.01664   2.88832
    R5        2.02419   0.00666   0.00437   0.00000   0.00437   2.02857
    R6        2.72703  -0.00398   0.00911   0.00000   0.00917   2.73620
    R7        2.63917  -0.07710  -0.02626   0.00000  -0.02619   2.61297
    R8        2.90957  -0.04620  -0.01618   0.00000  -0.01620   2.89337
    R9        2.69741  -0.09775  -0.04130   0.00000  -0.04124   2.65617
   R10        2.55663  -0.01192  -0.00174   0.00000  -0.00172   2.55491
   R11        2.02406   0.00681   0.00410   0.00000   0.00410   2.02815
   R12        2.02431   0.00691   0.00460   0.00000   0.00460   2.02891
   R13        2.02058  -0.00519  -0.00286   0.00000  -0.00286   2.01772
   R14        4.53534  -0.07028   0.00000   0.00000   0.00000   4.53534
   R15        2.02070  -0.00690  -0.00261   0.00000  -0.00261   2.01809
   R16        3.77945  -0.09906   0.00000   0.00000   0.00000   3.77945
   R17        3.04888  -0.02797  -0.02076   0.00000  -0.02085   3.02803
   R18        2.77306  -0.02614  -0.00817   0.00000  -0.00817   2.76488
    A1        2.10017   0.00017   0.00015   0.00000   0.00017   2.10034
    A2        2.09350   0.00742   0.00391   0.00000   0.00390   2.09740
    A3        2.08952  -0.00759  -0.00406   0.00000  -0.00407   2.08544
    A4        2.11383   0.00228   0.00369   0.00000   0.00365   2.11748
    A5        2.08709   0.00640   0.00297   0.00000   0.00299   2.09008
    A6        2.08227  -0.00868  -0.00666   0.00000  -0.00664   2.07563
    A7        2.07522  -0.00569  -0.00562   0.00000  -0.00566   2.06956
    A8        2.02683   0.00455   0.00416   0.00000   0.00432   2.03115
    A9        2.18113   0.00115   0.00145   0.00000   0.00132   2.18245
   A10        2.05210   0.00203  -0.00020   0.00000  -0.00024   2.05186
   A11        2.24002   0.00946   0.00386   0.00000   0.00370   2.24371
   A12        1.99106  -0.01148  -0.00368   0.00000  -0.00352   1.98754
   A13        2.12004  -0.00122   0.00043   0.00000   0.00037   2.12042
   A14        2.07976  -0.00580  -0.00385   0.00000  -0.00382   2.07594
   A15        2.08339   0.00702   0.00341   0.00000   0.00344   2.08683
   A16        2.10499   0.00244   0.00149   0.00000   0.00150   2.10649
   A17        2.08735  -0.00783  -0.00425   0.00000  -0.00425   2.08310
   A18        2.09085   0.00540   0.00276   0.00000   0.00275   2.09360
   A19        2.10705   0.01500   0.01893   0.00000   0.01910   2.12614
   A20        2.08922  -0.00506   0.00240   0.00000   0.00205   2.09127
   A21        2.08691  -0.00994  -0.02134   0.00000  -0.02118   2.06573
   A22        2.05413   0.03879   0.04436   0.00000   0.04424   2.09838
   A23        2.21420  -0.00653  -0.01015   0.00000  -0.01078   2.20342
   A24        2.01472  -0.03224  -0.03447   0.00000  -0.03450   1.98022
   A25        1.99084   0.01503   0.01627   0.00000   0.01521   2.00604
   A26        1.85043  -0.01398  -0.01489   0.00000  -0.01581   1.83461
   A27        1.93754  -0.01117  -0.01803   0.00000  -0.01774   1.91980
   A28        1.92899   0.01165   0.02147   0.00000   0.02119   1.95018
    D1       -0.00006   0.00015  -0.00012   0.00000  -0.00001  -0.00007
    D2        3.14079   0.00003  -0.00161   0.00000  -0.00146   3.13933
    D3       -3.14117   0.00017   0.00085   0.00000   0.00089  -3.14029
    D4       -0.00032   0.00005  -0.00064   0.00000  -0.00056  -0.00089
    D5        0.00215   0.00004   0.00436   0.00000   0.00434   0.00649
    D6       -3.13963   0.00003   0.00399   0.00000   0.00395  -3.13568
    D7       -3.13992   0.00002   0.00339   0.00000   0.00346  -3.13647
    D8        0.00149   0.00001   0.00302   0.00000   0.00306   0.00455
    D9       -0.00509  -0.00021  -0.01031   0.00000  -0.01029  -0.01538
   D10        3.13432   0.00022  -0.01465   0.00000  -0.01434   3.11998
   D11        3.13724  -0.00011  -0.00882   0.00000  -0.00885   3.12838
   D12       -0.00654   0.00033  -0.01316   0.00000  -0.01290  -0.01944
   D13        0.00779   0.00016   0.01574   0.00000   0.01561   0.02339
   D14       -3.13850   0.00009   0.00641   0.00000   0.00635  -3.13215
   D15       -3.13142  -0.00031   0.02049   0.00000   0.02003  -3.11138
   D16        0.00548  -0.00039   0.01116   0.00000   0.01077   0.01625
   D17       -0.00116   0.00043  -0.00165   0.00000  -0.00162  -0.00277
   D18       -3.13937  -0.00076   0.00513   0.00000   0.00497  -3.13440
   D19        3.13811   0.00088  -0.00628   0.00000  -0.00597   3.13214
   D20       -0.00011  -0.00030   0.00050   0.00000   0.00062   0.00051
   D21       -0.00594  -0.00002  -0.01198   0.00000  -0.01186  -0.01780
   D22        3.13645  -0.00010  -0.01037   0.00000  -0.01030   3.12615
   D23        3.13969   0.00000  -0.00397   0.00000  -0.00396   3.13573
   D24       -0.00111  -0.00009  -0.00236   0.00000  -0.00240  -0.00351
   D25        3.13399   0.00069  -0.01553   0.00000  -0.01638   3.11761
   D26        0.01074  -0.00039   0.02117   0.00000   0.02076   0.03149
   D27       -0.01216   0.00065  -0.02458   0.00000  -0.02535  -0.03751
   D28       -3.13541  -0.00043   0.01212   0.00000   0.01179  -3.12363
   D29        0.00089  -0.00009   0.00177   0.00000   0.00172   0.00261
   D30       -3.14052  -0.00008   0.00214   0.00000   0.00212  -3.13840
   D31       -3.14150  -0.00001   0.00015   0.00000   0.00015  -3.14136
   D32        0.00027   0.00000   0.00053   0.00000   0.00055   0.00082
   D33       -0.02164   0.00227  -0.04487   0.00000  -0.04411  -0.06575
   D34        2.07395   0.00161  -0.03818   0.00000  -0.03776   2.03619
   D35        3.12329   0.00105  -0.03818   0.00000  -0.03783   3.08546
   D36       -1.06431   0.00039  -0.03148   0.00000  -0.03148  -1.09579
   D37       -0.03412   0.00212  -0.06909   0.00000  -0.06909  -0.10321
   D38        3.12545   0.00041  -0.03310   0.00000  -0.03483   3.09063
   D39        0.03044  -0.00219   0.06222   0.00000   0.06193   0.09237
   D40       -2.07072   0.01321   0.08090   0.00000   0.08132  -1.98939
         Item               Value     Threshold  Converged?
 Maximum Force            0.097782     0.000015     NO 
 RMS     Force            0.018439     0.000010     NO 
 Maximum Displacement     0.104547     0.000060     NO 
 RMS     Displacement     0.025021     0.000040     NO 
 Predicted change in Energy=-1.406720D-02
 GradGradGradGradGradGradGradGradGradGradGradGradGradGradGradGradGradGrad

                          Input orientation:                          
 ---------------------------------------------------------------------
 Center     Atomic      Atomic             Coordinates (Angstroms)
 Number     Number       Type             X           Y           Z
 ---------------------------------------------------------------------
      1          6           0       -5.604487   -1.719442    0.091984
      2          6           0       -4.267156   -1.790625   -0.079834
      3          6           0       -3.403944   -0.530177   -0.127234
      4          6           0       -4.052371    0.758443   -0.002699
      5          6           0       -5.569776    0.771244    0.201252
      6          6           0       -6.286400   -0.374438    0.243306
      7          1           0       -1.618383   -1.699193   -0.359510
      8          1           0       -6.192701   -2.616433    0.123653
      9          1           0       -3.793667   -2.748388   -0.183939
     10          6           0       -2.043354   -0.722840   -0.280874
     11          6           0       -3.470878    2.037858   -0.027960
     12          1           0       -6.071192    1.713842    0.310624
     13          1           0       -7.350035   -0.336572    0.384630
     14          1           0       -4.083538    2.908613    0.055093
     15          8           0       -1.532987    2.450863   -0.300002
     16          8           0        0.349359    1.134457    0.781027
     17         16           0       -0.570768    1.170794   -0.355963
 ---------------------------------------------------------------------
                    Distance matrix (angstroms):
                    1          2          3          4          5
     1  C    0.000000
     2  C    1.350201   0.000000
     3  C    2.510936   1.528434   0.000000
     4  C    2.925396   2.559263   1.447933   0.000000
     5  C    2.493323   2.887733   2.548024   1.531103   0.000000
     6  C    1.515566   2.487438   2.910345   2.516907   1.352000
     7  H    4.011643   2.665065   2.146806   3.477296   4.693721
     8  H    1.073123   2.105016   3.491787   3.998346   3.445347
     9  H    2.100936   1.073471   2.252900   3.521028   3.961154
    10  C    3.716706   2.475050   1.382725   2.511519   3.860101
    11  C    4.322497   3.910758   2.570825   1.405587   2.462158
    12  H    3.471751   3.960845   3.513055   2.255348   1.073253
    13  H    2.246088   3.440079   3.983858   3.496237   2.104806
    14  H    4.871709   4.704759   3.510039   2.151173   2.607415
    15  O    5.841422   5.051175   3.523766   3.049585   4.400913
    16  O    6.638359   5.532576   4.205143   4.486741   5.958542
    17  S    5.821722   4.744421   3.312477   3.523690   5.045811
                    6          7          8          9         10
     6  C    0.000000
     7  H    4.889656   0.000000
     8  H    2.247140   4.690327   0.000000
     9  H    3.468701   2.421466   2.422269   0.000000
    10  C    4.289473   1.067731   4.578910   2.678775   0.000000
    11  C    3.717515   4.184162   5.393861   4.799654   3.118212
    12  H    2.100419   5.650256   4.336013   5.034204   4.744551
    13  H    1.073651   5.938208   2.570078   4.334499   5.362179
    14  H    3.958087   5.242210   5.914340   5.669465   4.178837
    15  O    5.556297   4.151361   6.897094   5.670657   3.214534
    16  O    6.826361   3.633512   7.569668   5.759541   3.209714
    17  S    5.951076   3.055215   6.795532   5.077072   2.400000
                   11         12         13         14         15
    11  C    0.000000
    12  H    2.642207   0.000000
    13  H    4.566838   2.417667   0.000000
    14  H    1.067926   2.333140   4.616257   0.000000
    15  O    2.000000   4.638035   6.486645   2.615519   0.000000
    16  O    4.008093   6.463780   7.848677   4.829616   2.538657
    17  S    3.044671   5.567217   6.984203   3.940626   1.602365
                   16         17
    16  O    0.000000
    17  S    1.463113   0.000000
 Symmetry turned off by external request.
 Stoichiometry    C8H6O2S
 Framework group  C1[X(C8H6O2S)]
 Deg. of freedom    45
 Full point group                 C1      NOp   1
 Rotational constants (GHZ):           2.3201044           0.5573695           0.4641085
 Standard basis: VSTO-6G (5D, 7F)
    55 basis functions,   336 primitive gaussians,    56 cartesian basis functions
    28 alpha electrons       28 beta electrons
       nuclear repulsion energy       306.0199861392 Hartrees.
 Integral buffers will be    131072 words long.
 Regular integral format.
 Two-electron integral symmetry is turned off.
 Do NDO integrals.
 One-electron integrals computed using PRISM.
 NBasis=    55 RedAO= F EigKep=  0.00D+00  NBF=    55
 NBsUse=    55 1.00D-04 EigRej=  0.00D+00 NBFU=    55
 Initial guess from the checkpoint file:  "C:\Users\al6323\OneDrive - Imperial College London\Desktop\TSR20251114\TS_freeze_opt+freq.chk"
 B after Tr=    -0.010447   -0.003781    0.031505
         Rot=    0.999995    0.002207    0.002183   -0.000168 Ang=   0.36 deg.
 Keep J ints in memory in canonical form, NReq=1858957.
 Overlap will be assumed to be unity.
 Requested convergence on RMS density matrix=1.00D-08 within  32 cycles.
 Requested convergence on MAX density matrix=1.00D-06.
 Requested convergence on             energy=1.00D-06.
 No special actions if energy rises.
 SCF Done:  E(RPM6) =  0.192213749942     A.U. after   19 cycles
            NFock= 18  Conv=0.43D-08     -V/T= 1.0018
 QCSCF skips out because SCF is already converged.
 Calling FoFJK, ICntrl=      2127 FMM=F ISym2X=0 I1Cent= 0 IOpClX= 0 NMat=1 NMatS=1 NMatT=0.
 -------------------------------------------------------------------
 Center     Atomic                   Forces (Hartrees/Bohr)
 Number     Number              X              Y              Z
 -------------------------------------------------------------------
      1        6          -0.004923948    0.038095629    0.002444370
      2        6          -0.000004145    0.039227726    0.001216604
      3        6           0.047595402   -0.036588201   -0.006493406
      4        6           0.016974251    0.061070262    0.001444128
      5        6           0.030203587   -0.013241201   -0.005054720
      6        6           0.033689188   -0.025893701   -0.005688301
      7        1           0.009039181    0.008902639   -0.000670963
      8        1          -0.008228415   -0.000854701    0.001092643
      9        1           0.008485942   -0.002357599   -0.001124519
     10        6          -0.032775478    0.051296519    0.010052223
     11        6           0.009805192   -0.061957228   -0.005343227
     12        1           0.002026630    0.007941560    0.000209722
     13        1          -0.006350710   -0.005477431    0.000661170
     14        1           0.030268325    0.014253111   -0.002742140
     15        8          -0.089638208   -0.044826355    0.008678717
     16        8          -0.016897122   -0.009095270   -0.015301561
     17       16          -0.029269670   -0.020495760    0.016619259
 -------------------------------------------------------------------
 Cartesian Forces:  Max     0.089638208 RMS     0.026293408

 GradGradGradGradGradGradGradGradGradGradGradGradGradGradGradGradGradGrad
 Berny optimization.
 Using GEDIIS/GDIIS optimizer.
 FormGI is forming the generalized inverse of G from B-inverse, IUseBI=4.
 Internal  Forces:  Max     0.096897012 RMS     0.020347546
 Search for a local minimum.
 Step number   3 out of a maximum of  102
 All quantities printed in internal units (Hartrees-Bohrs-Radians)
 Mixed Optimization -- RFO/linear search
 Update second derivatives using D2CorX and points    1    2    3
 ITU=  0  1  0
 Use linear search instead of GDIIS.
 Linear search step of   0.200 exceeds DXMaxT=   0.084 scaled by   0.843
 Quartic linear search produced a step of  1.68508.
 Iteration  1 RMS(Cart)=  0.04159142 RMS(Int)=  0.00177294
 Iteration  2 RMS(Cart)=  0.00167388 RMS(Int)=  0.00099816
 Iteration  3 RMS(Cart)=  0.00000187 RMS(Int)=  0.00099816
 Iteration  4 RMS(Cart)=  0.00000000 RMS(Int)=  0.00099816
 Iteration  1 RMS(Cart)=  0.00002219 RMS(Int)=  0.00000236
 Iteration  2 RMS(Cart)=  0.00000067 RMS(Int)=  0.00000241
 Variable       Old X    -DE/DX   Delta X   Delta X   Delta X     New X
                                 (Linear)    (Quad)   (Total)
    R1        2.55151  -0.00753  -0.00181   0.00000  -0.00172   2.54979
    R2        2.86400  -0.04412  -0.03935   0.00000  -0.03921   2.82480
    R3        2.02791   0.00526   0.00663   0.00000   0.00663   2.03454
    R4        2.88832  -0.03813  -0.02804   0.00000  -0.02809   2.86023
    R5        2.02857   0.00596   0.00737   0.00000   0.00737   2.03593
    R6        2.73620  -0.00286   0.01545   0.00000   0.01559   2.75179
    R7        2.61297  -0.06529  -0.04414   0.00000  -0.04401   2.56896
    R8        2.89337  -0.03937  -0.02730   0.00000  -0.02737   2.86599
    R9        2.65617  -0.08233  -0.06949   0.00000  -0.06929   2.58689
   R10        2.55491  -0.00990  -0.00290   0.00000  -0.00283   2.55208
   R11        2.02815   0.00605   0.00691   0.00000   0.00691   2.03506
   R12        2.02891   0.00619   0.00775   0.00000   0.00775   2.03666
   R13        2.01772  -0.00449  -0.00482   0.00000  -0.00482   2.01290
   R14        4.53534  -0.06982   0.00000   0.00000   0.00000   4.53534
   R15        2.01809  -0.00596  -0.00440   0.00000  -0.00440   2.01368
   R16        3.77945  -0.09690   0.00000   0.00000   0.00000   3.77945
   R17        3.02803  -0.02463  -0.03513   0.00000  -0.03534   2.99269
   R18        2.76488  -0.02229  -0.01377   0.00000  -0.01377   2.75111
    A1        2.10034   0.00013   0.00029   0.00000   0.00036   2.10070
    A2        2.09740   0.00650   0.00657   0.00000   0.00653   2.10393
    A3        2.08544  -0.00664  -0.00686   0.00000  -0.00689   2.07855
    A4        2.11748   0.00216   0.00615   0.00000   0.00602   2.12350
    A5        2.09008   0.00560   0.00504   0.00000   0.00510   2.09518
    A6        2.07563  -0.00776  -0.01119   0.00000  -0.01113   2.06450
    A7        2.06956  -0.00507  -0.00953   0.00000  -0.00964   2.05992
    A8        2.03115   0.00480   0.00728   0.00000   0.00777   2.03892
    A9        2.18245   0.00028   0.00222   0.00000   0.00182   2.18427
   A10        2.05186   0.00168  -0.00040   0.00000  -0.00052   2.05133
   A11        2.24371   0.00768   0.00623   0.00000   0.00577   2.24948
   A12        1.98754  -0.00936  -0.00594   0.00000  -0.00550   1.98204
   A13        2.12042  -0.00108   0.00063   0.00000   0.00045   2.12087
   A14        2.07594  -0.00507  -0.00643   0.00000  -0.00635   2.06959
   A15        2.08683   0.00615   0.00580   0.00000   0.00589   2.09272
   A16        2.10649   0.00217   0.00253   0.00000   0.00256   2.10905
   A17        2.08310  -0.00687  -0.00716   0.00000  -0.00718   2.07592
   A18        2.09360   0.00470   0.00463   0.00000   0.00462   2.09822
   A19        2.12614   0.01425   0.03218   0.00000   0.03268   2.15882
   A20        2.09127  -0.00448   0.00345   0.00000   0.00241   2.09368
   A21        2.06573  -0.00975  -0.03569   0.00000  -0.03522   2.03051
   A22        2.09838   0.03651   0.07456   0.00000   0.07403   2.17240
   A23        2.20342  -0.00628  -0.01817   0.00000  -0.01988   2.18354
   A24        1.98022  -0.03016  -0.05813   0.00000  -0.05807   1.92214
   A25        2.00604   0.01488   0.02563   0.00000   0.02224   2.02828
   A26        1.83461  -0.01188  -0.02665   0.00000  -0.02918   1.80544
   A27        1.91980  -0.01063  -0.02990   0.00000  -0.02909   1.89071
   A28        1.95018   0.01026   0.03571   0.00000   0.03464   1.98481
    D1       -0.00007   0.00022  -0.00002   0.00000   0.00031   0.00024
    D2        3.13933   0.00009  -0.00246   0.00000  -0.00201   3.13732
    D3       -3.14029   0.00021   0.00149   0.00000   0.00159  -3.13870
    D4       -0.00089   0.00007  -0.00095   0.00000  -0.00073  -0.00162
    D5        0.00649   0.00007   0.00732   0.00000   0.00726   0.01375
    D6       -3.13568   0.00001   0.00665   0.00000   0.00653  -3.12915
    D7       -3.13647   0.00009   0.00582   0.00000   0.00602  -3.13045
    D8        0.00455   0.00003   0.00515   0.00000   0.00528   0.00983
    D9       -0.01538  -0.00027  -0.01734   0.00000  -0.01727  -0.03266
   D10        3.11998   0.00028  -0.02416   0.00000  -0.02322   3.09676
   D11        3.12838  -0.00015  -0.01492   0.00000  -0.01502   3.11337
   D12       -0.01944   0.00040  -0.02174   0.00000  -0.02096  -0.04040
   D13        0.02339   0.00020   0.02630   0.00000   0.02591   0.04931
   D14       -3.13215   0.00027   0.01070   0.00000   0.01051  -3.12164
   D15       -3.11138  -0.00041   0.03376   0.00000   0.03238  -3.07900
   D16        0.01625  -0.00035   0.01815   0.00000   0.01698   0.03324
   D17       -0.00277   0.00065  -0.00272   0.00000  -0.00261  -0.00539
   D18       -3.13440  -0.00045   0.00837   0.00000   0.00788  -3.12652
   D19        3.13214   0.00122  -0.01005   0.00000  -0.00907   3.12307
   D20        0.00051   0.00012   0.00104   0.00000   0.00142   0.00193
   D21       -0.01780   0.00000  -0.01999   0.00000  -0.01965  -0.03745
   D22        3.12615  -0.00007  -0.01736   0.00000  -0.01717   3.10897
   D23        3.13573  -0.00018  -0.00668   0.00000  -0.00666   3.12907
   D24       -0.00351  -0.00025  -0.00405   0.00000  -0.00418  -0.00769
   D25        3.11761   0.00015  -0.02761   0.00000  -0.03005   3.08756
   D26        0.03149  -0.00050   0.03497   0.00000   0.03355   0.06505
   D27       -0.03751   0.00028  -0.04272   0.00000  -0.04492  -0.08243
   D28       -3.12363  -0.00037   0.01986   0.00000   0.01869  -3.10494
   D29        0.00261  -0.00013   0.00290   0.00000   0.00276   0.00537
   D30       -3.13840  -0.00007   0.00357   0.00000   0.00351  -3.13489
   D31       -3.14136  -0.00008   0.00025   0.00000   0.00024  -3.14112
   D32        0.00082  -0.00002   0.00092   0.00000   0.00099   0.00181
   D33       -0.06575   0.00229  -0.07433   0.00000  -0.07207  -0.13782
   D34        2.03619   0.00197  -0.06363   0.00000  -0.06229   1.97390
   D35        3.08546   0.00109  -0.06375   0.00000  -0.06269   3.02276
   D36       -1.09579   0.00077  -0.05304   0.00000  -0.05291  -1.14870
   D37       -0.10321   0.00171  -0.11643   0.00000  -0.11626  -0.21947
   D38        3.09063  -0.00071  -0.05869   0.00000  -0.06400   3.02663
   D39        0.09237  -0.00147   0.10436   0.00000   0.10333   0.19571
   D40       -1.98939   0.01306   0.13704   0.00000   0.13830  -1.85109
         Item               Value     Threshold  Converged?
 Maximum Force            0.082288     0.000015     NO 
 RMS     Force            0.015889     0.000010     NO 
 Maximum Displacement     0.183951     0.000060     NO 
 RMS     Displacement     0.041662     0.000040     NO 
 Predicted change in Energy=-1.979656D-02
 GradGradGradGradGradGradGradGradGradGradGradGradGradGradGradGradGradGrad

                          Input orientation:                          
 ---------------------------------------------------------------------
 Center     Atomic      Atomic             Coordinates (Angstroms)
 Number     Number       Type             X           Y           Z
 ---------------------------------------------------------------------
      1          6           0       -5.595486   -1.702427    0.088623
      2          6           0       -4.261387   -1.774614   -0.099925
      3          6           0       -3.396401   -0.533252   -0.141254
      4          6           0       -4.050733    0.761217   -0.012136
      5          6           0       -5.549337    0.769114    0.220787
      6          6           0       -6.263160   -0.376516    0.263695
      7          1           0       -1.601669   -1.682446   -0.359156
      8          1           0       -6.193234   -2.597409    0.117560
      9          1           0       -3.784894   -2.733192   -0.221612
     10          6           0       -2.057717   -0.722860   -0.282823
     11          6           0       -3.494708    2.011814   -0.040281
     12          1           0       -6.045734    1.716123    0.349215
     13          1           0       -7.328432   -0.346184    0.424405
     14          1           0       -4.049552    2.919896    0.014758
     15          8           0       -1.563743    2.404660   -0.382401
     16          8           0        0.252017    1.127902    0.864723
     17         16           0       -0.578109    1.166181   -0.330625
 ---------------------------------------------------------------------
                    Distance matrix (angstroms):
                    1          2          3          4          5
     1  C    0.000000
     2  C    1.349289   0.000000
     3  C    2.501158   1.513568   0.000000
     4  C    2.909632   2.546079   1.456184   0.000000
     5  C    2.475503   2.869185   2.542118   1.516618   0.000000
     6  C    1.494818   2.468602   2.899458   2.503068   1.350500
     7  H    4.018890   2.673910   2.142239   3.477043   4.683008
     8  H    1.076630   2.111001   3.485686   3.985913   3.429102
     9  H    2.106411   1.077370   2.235424   3.510761   3.946533
    10  C    3.689625   2.448632   1.359437   2.499574   3.830277
    11  C    4.269130   3.863728   2.548965   1.368923   2.415359
    12  H    3.457906   3.945993   3.509874   2.241082   1.076907
    13  H    2.226038   3.423755   3.976913   3.487150   2.109628
    14  H    4.874551   4.700687   3.517837   2.158847   2.630146
    15  O    5.774511   4.982309   3.471039   3.003851   4.350150
    16  O    6.542659   5.452151   4.133082   4.406472   5.847998
    17  S    5.794718   4.718901   3.296468   3.510633   5.017452
                    6          7          8          9         10
     6  C    0.000000
     7  H    4.880870   0.000000
     8  H    2.226795   4.706048   0.000000
     9  H    3.454164   2.426820   2.435894   0.000000
    10  C    4.254925   1.065181   4.558152   2.651098   0.000000
    11  C    3.668902   4.163273   5.343398   4.757329   3.098744
    12  H    2.105640   5.639306   4.322265   5.023310   4.717244
    13  H    1.077753   5.932569   2.539851   4.321089   5.331275
    14  H    3.978487   5.226232   5.920017   5.664214   4.162408
    15  O    5.498808   4.087348   6.833948   5.599722   3.167855
    16  O    6.713571   3.582191   7.481808   5.690766   3.174437
    17  S    5.920552   3.027072   6.774593   5.049798   2.400000
                   11         12         13         14         15
    11  C    0.000000
    12  H    2.597474   0.000000
    13  H    4.524768   2.429831   0.000000
    14  H    1.065595   2.354926   4.646089   0.000000
    15  O    2.000000   4.593211   6.438145   2.569523   0.000000
    16  O    3.954527   6.346134   7.734986   4.736790   2.546059
    17  S    3.050565   5.537106   6.958748   3.904577   1.583662
                   16         17
    16  O    0.000000
    17  S    1.455827   0.000000
 Symmetry turned off by external request.
 Stoichiometry    C8H6O2S
 Framework group  C1[X(C8H6O2S)]
 Deg. of freedom    45
 Full point group                 C1      NOp   1
 Rotational constants (GHZ):           2.3300435           0.5674272           0.4741681
 Standard basis: VSTO-6G (5D, 7F)
    55 basis functions,   336 primitive gaussians,    56 cartesian basis functions
    28 alpha electrons       28 beta electrons
       nuclear repulsion energy       307.5528184309 Hartrees.
 Integral buffers will be    131072 words long.
 Regular integral format.
 Two-electron integral symmetry is turned off.
 Do NDO integrals.
 One-electron integrals computed using PRISM.
 NBasis=    55 RedAO= F EigKep=  0.00D+00  NBF=    55
 NBsUse=    55 1.00D-04 EigRej=  0.00D+00 NBFU=    55
 Initial guess from the checkpoint file:  "C:\Users\al6323\OneDrive - Imperial College London\Desktop\TSR20251114\TS_freeze_opt+freq.chk"
 B after Tr=    -0.018656   -0.004460    0.052159
         Rot=    0.999987    0.003618    0.003589   -0.000402 Ang=   0.59 deg.
 Keep J ints in memory in canonical form, NReq=1858957.
 Overlap will be assumed to be unity.
 Requested convergence on RMS density matrix=1.00D-08 within  32 cycles.
 Requested convergence on MAX density matrix=1.00D-06.
 Requested convergence on             energy=1.00D-06.
 No special actions if energy rises.
 SCF Done:  E(RPM6) =  0.172723707364     A.U. after   19 cycles
            NFock= 18  Conv=0.48D-08     -V/T= 1.0016
 QCSCF skips out because SCF is already converged.
 Calling FoFJK, ICntrl=      2127 FMM=F ISym2X=0 I1Cent= 0 IOpClX= 0 NMat=1 NMatS=1 NMatT=0.
 -------------------------------------------------------------------
 Center     Atomic                   Forces (Hartrees/Bohr)
 Number     Number              X              Y              Z
 -------------------------------------------------------------------
      1        6          -0.003404798    0.026765228    0.002168908
      2        6          -0.001059968    0.028754116    0.001190687
      3        6           0.031601427   -0.027030215   -0.004259491
      4        6           0.011951358    0.036617312    0.001992029
      5        6           0.020573424   -0.009735198   -0.004173701
      6        6           0.024135216   -0.018432594   -0.004797367
      7        1           0.008489335    0.007714270   -0.000742357
      8        1          -0.006362317   -0.000841549    0.000907586
      9        1           0.006650624   -0.001955295   -0.001012423
     10        6          -0.009983954    0.049427318    0.007261974
     11        6           0.024955028   -0.032920160   -0.009738888
     12        1           0.001428407    0.006178020    0.000273109
     13        1          -0.005097684   -0.004129247    0.000634399
     14        1           0.027374521    0.011810079   -0.002334407
     15        8          -0.086801662   -0.038605822    0.012291660
     16        8          -0.011677590   -0.008383299   -0.011208423
     17       16          -0.032771368   -0.025232966    0.011546705
 -------------------------------------------------------------------
 Cartesian Forces:  Max     0.086801662 RMS     0.021341366

 GradGradGradGradGradGradGradGradGradGradGradGradGradGradGradGradGradGrad
 Berny optimization.
 Using GEDIIS/GDIIS optimizer.
 FormGI is forming the generalized inverse of G from B-inverse, IUseBI=4.
 Internal  Forces:  Max     0.092845571 RMS     0.016654797
 Search for a local minimum.
 Step number   4 out of a maximum of  102
 All quantities printed in internal units (Hartrees-Bohrs-Radians)
 Mixed Optimization -- RFO/linear search
 Update second derivatives using D2CorX and points    1    2    3    4
 ITU=  0  0  1  0
 Use linear search instead of GDIIS.
 Linear search step of   0.335 exceeds DXMaxT=   0.084 scaled by   0.502
 Quartic linear search produced a step of  1.00359.
 Iteration  1 RMS(Cart)=  0.04117343 RMS(Int)=  0.00188890
 Iteration  2 RMS(Cart)=  0.00160167 RMS(Int)=  0.00126130
 Iteration  3 RMS(Cart)=  0.00000160 RMS(Int)=  0.00126129
 Iteration  4 RMS(Cart)=  0.00000000 RMS(Int)=  0.00126129
 Iteration  1 RMS(Cart)=  0.00003077 RMS(Int)=  0.00000404
 Iteration  2 RMS(Cart)=  0.00000133 RMS(Int)=  0.00000416
 Iteration  3 RMS(Cart)=  0.00000011 RMS(Int)=  0.00000418
 Variable       Old X    -DE/DX   Delta X   Delta X   Delta X     New X
                                 (Linear)    (Quad)   (Total)
    R1        2.54979  -0.00480  -0.00173   0.00000  -0.00163   2.54816
    R2        2.82480  -0.03106  -0.03935   0.00000  -0.03918   2.78562
    R3        2.03454   0.00426   0.00665   0.00000   0.00665   2.04119
    R4        2.86023  -0.02678  -0.02819   0.00000  -0.02825   2.83198
    R5        2.03593   0.00480   0.00739   0.00000   0.00739   2.04333
    R6        2.75179  -0.00095   0.01565   0.00000   0.01578   2.76757
    R7        2.56896  -0.04273  -0.04417   0.00000  -0.04407   2.52490
    R8        2.86599  -0.02693  -0.02747   0.00000  -0.02756   2.83843
    R9        2.58689  -0.05053  -0.06954   0.00000  -0.06927   2.51762
   R10        2.55208  -0.00641  -0.00285   0.00000  -0.00277   2.54931
   R11        2.03506   0.00481   0.00693   0.00000   0.00693   2.04199
   R12        2.03666   0.00502   0.00778   0.00000   0.00778   2.04444
   R13        2.01290  -0.00326  -0.00483   0.00000  -0.00483   2.00807
   R14        4.53534  -0.06847   0.00000   0.00000   0.00000   4.53534
   R15        2.01368  -0.00431  -0.00442   0.00000  -0.00442   2.00926
   R16        3.77945  -0.09285   0.00000   0.00000   0.00000   3.77945
   R17        2.99269  -0.01879  -0.03547   0.00000  -0.03563   2.95705
[...]
   yx         0.250101D+01      0.370612D+00      0.412361D+00
   yy         0.124879D+03      0.185052D+02      0.205898D+02
   zx        -0.636094D+02     -0.942594D+01     -0.104878D+02
   zy         0.338337D+02      0.501364D+01      0.557843D+01
   zz         0.145446D+03      0.215529D+02      0.239808D+02

 First dipole hyperpolarizability, Beta (dipole orientation).
 ||, _|_  parallel and perpendicular components, (z) with respect to z axis,
 vector components x,y,z.  Values do not include the 1/n! factor of 1/2.
 (esu units = statvolt**-1 cm**4 , SI units = C**3 m**3 J**-2)
 Beta(0;0,0):
               (au)            (10**-30 esu)      (10**-50 SI)
   || (z)    -0.381191D+03     -0.329319D+01     -0.122224D+01
   _|_(z)    -0.127064D+03     -0.109773D+01     -0.407412D+00
   x          0.392493D+03      0.339083D+01      0.125847D+01
   y         -0.289610D+04     -0.250201D+02     -0.928595D+01
   z         -0.190596D+04     -0.164660D+02     -0.611118D+01
   ||         0.697829D+03      0.602869D+01      0.223749D+01
   xxx       -0.101817D+03     -0.879624D+00     -0.326464D+00
   xxy       -0.177488D+03     -0.153335D+01     -0.569089D+00
   yxy        0.169417D+02      0.146363D+00      0.543212D-01
   yyy       -0.322461D+03     -0.278581D+01     -0.103393D+01
   xxz        0.460766D+02      0.398066D+00      0.147738D+00
   yxz        0.232619D+03      0.200965D+01      0.745860D+00
   yyz       -0.298681D+03     -0.258037D+01     -0.957680D+00
   zxz        0.215707D+03      0.186354D+01      0.691634D+00
   zyz       -0.465419D+03     -0.402085D+01     -0.149230D+01
   zzz       -0.382714D+03     -0.330635D+01     -0.122712D+01

 ----------------------------------------------------------------------
 Unable to Open any file for archive entry.
 1|1|UNPC-SKCH-134-020|Freq|RPM6|ZDO|C8H6O2S1|AL6323|14-Nov-2025|0||#N 
 Geom=AllCheck Guess=TCheck SCRF=Check GenChk RPM6/ZDO Freq||Title Card
  Required||0,1|C,-5.596923303,-1.6647040706,0.0195205116|C,-4.28261855
 78,-1.7331922732,-0.2672730915|C,-3.3769953034,-0.5677103421,-0.185786
 4196|C,-4.0507044364,0.7504554571,-0.0324425131|C,-5.4674482813,0.7399
 404075,0.4111241332|C,-6.1879711229,-0.3985259278,0.4218569093|H,-1.42
 9256403,-1.5673052271,-0.2712035655|H,-6.2486142643,-2.5338937015,-0.0
 29368608|H,-3.8097339833,-2.6732561919,-0.5567809172|C,-2.0719245752,-
 0.7396902378,-0.1990308|C,-3.5701847012,1.9506735563,-0.2596375026|H,-
 5.8963906219,1.6906525933,0.721654077|H,-7.233018865,-0.408122933,0.73
 62289038|H,-3.5922969451,2.9963838786,-0.324835911|O,-1.6664199644,2.0
 573430656,-0.8632113812|O,-0.4311533899,1.3158926765,1.2856585553|S,-0
 .6506250521,1.1930634403,-0.1329182204||Version=EM64W-G16RevC.01|HF=0.
 138084|RMSD=1.725e-009|RMSF=1.787e-002|ZeroPoint=0.1087404|Thermal=0.1
 179603|ETot=0.2560442|HTot=0.2569884|GTot=0.2119377|Dipole=-0.9392525,
 -0.2752759,-0.6768648|DipoleDeriv=-0.8444961,0.0461185,0.0240123,0.043
 4701,-0.4361809,-0.0064051,0.1200928,-0.0336625,-0.3277362,0.4401985,-
 0.035724,-0.0221888,0.4085772,-0.0991265,-0.0394717,0.0254574,-0.04896
 95,0.0161057,-0.6035352,0.3709917,-0.0101427,-0.1282944,-0.2772236,-0.
 00792,-0.0692439,0.0087223,-0.0975908,-0.1538134,0.274356,0.1027981,-0
 .2009684,0.1119947,-0.0957101,0.1019926,-0.1339892,0.1529954,-0.069094
 8,-0.2636248,-0.0711902,0.056174,-0.5223897,-0.0079782,-0.0462107,0.02
 37019,-0.348411,-0.1039502,-0.0770456,0.0379864,-0.3454407,0.4164308,0
 .0485036,-0.0391411,0.0575514,0.0404547,0.0952683,-0.2587403,-0.040227
 6,-0.1557051,0.1954641,-0.005647,-0.0357379,-0.008624,0.1373855,0.2146
 004,0.0833612,0.0150456,0.1961582,0.2482009,-0.0195439,0.0391398,0.002
 0457,0.1699173,0.0879652,-0.079058,-0.013791,-0.0615928,0.2545393,0.04
 01249,-0.0018477,0.0444982,0.1433464,-0.214845,-0.2874589,-0.0247035,-
 0.2917976,-0.4936145,-0.0688187,0.0210673,-0.0044942,-0.3438153,0.9414
 337,-0.0434402,-0.2232921,0.3153916,-0.3756582,0.0513038,-0.3333868,0.
 0822625,0.0166958,0.153034,-0.1033875,-0.0003075,-0.1087742,0.2209269,
 0.0317676,-0.0100917,0.0569956,0.1915058,0.3250856,0.0750981,-0.035523
 5,-0.0222209,0.0701016,-0.0077125,-0.0705071,-0.0239624,0.1449229,-0.0
 212054,0.0133052,0.0672766,-0.1088423,0.5128151,-0.027513,0.0776844,-0
 .0340823,0.2202185,-0.7867911,0.3568219,-0.0899091,-0.3890775,-0.86184
 36,0.135673,0.1935906,0.2771321,-0.7637519,-0.7216608,-0.0821271,0.071
 3758,-0.1976904,-0.6162868,-0.0821534,-1.2418111,-0.595865,-0.911928,1
 .2618731,0.0106094,0.212746,0.9907552,1.6517439,0.0615356,1.2689436,0.
 3306659,1.5596418|Polar=181.1078169,32.3486421,137.8165734,-2.1411547,
 2.6535579,45.3103059|HyperPolar=177.6915277,579.1105905,353.2592487,52
 1.7075883,67.9465501,-14.2352055,75.7227801,-62.9782828,-36.6419354,-1
 08.8802642|PG=C01 [X(C8H6O2S1)]|NImag=2||0.79222043,-0.00735137,0.5296
 9865,-0.14124459,0.08619884,0.18055264,-0.51610340,0.00129999,0.095282
 22,0.81972195,0.03974374,-0.07154555,-0.01001216,0.00235065,0.48431335
 ,0.10369037,-0.00240970,-0.07994717,-0.13273323,0.07204041,0.17753518,
 -0.06307699,-0.01692023,0.00913832,-0.08658452,-0.07805731,-0.00684015
 ,0.85992268,-0.02507969,-0.00110821,0.00243771,-0.09440007,-0.17873009
 ,-0.00883155,-0.04753653,0.51228207,0.00325539,0.00458953,0.00769595,-
 0.00498572,-0.00684706,-0.06699385,-0.02335979,0.03345195,0.14095817,-
 0.00829543,0.00283484,0.00148050,0.01213897,-0.00588774,-0.00215708,-0
 .08278163,0.07431832,0.00508794,0.50664804,-0.01016011,0.00208070,0.00
 335537,0.01098600,-0.04619396,-0.00432352,0.00797844,-0.16566197,-0.01
 486032,0.11451314,0.84151832,0.00233444,-0.00199551,-0.00451517,-0.004
 04466,-0.00643774,0.00573031,0.00907317,-0.01941912,-0.06314817,-0.116
 00115,-0.06646859,0.17168686,0.02673185,-0.01257938,-0.00702301,-0.013
 74993,-0.00124881,0.00225059,-0.01741985,0.01917647,0.01214580,-0.2034
 8705,0.02870425,0.04300534,0.55213230,0.00962329,-0.06697868,-0.015178
 56,-0.00955364,-0.00963761,-0.00012303,0.03492258,-0.00466561,-0.00579
 962,0.00747589,-0.03635002,-0.00501206,0.17178300,0.72502750,-0.003973
 43,-0.00971754,0.00646755,0.00240169,-0.00083813,-0.00035499,0.0062857
 4,-0.00424209,0.00472157,0.04954993,-0.01023806,-0.07519323,-0.1023340
 7,0.05236406,0.16940028,-0.09710227,0.09339256,0.02710884,-0.03504253,
 0.03186291,0.01486136,-0.00223532,0.00033949,0.00042561,-0.04376790,-0
 .03004217,0.01033364,-0.20552488,-0.23365785,0.00179491,0.57832256,0.0
 4451616,-0.22214073,-0.04413600,0.05734465,-0.00240329,-0.01361454,-0.
 01779767,-0.00152589,-0.00109851,-0.03696507,-0.01600209,0.01128911,-0
 .19582078,-0.40236902,-0.00317336,0.14464952,0.75218193,0.01781034,-0.
 05613407,-0.08319247,0.01978401,-0.00896071,-0.00045156,-0.00319521,0.
 00047518,-0.00432197,0.00972332,0.00595666,0.00372587,0.00778210,0.007
 73481,-0.05814627,-0.10327361,0.06797651,0.18125773,-0.00066020,0.0002
 1761,0.00008280,-0.00027391,0.00060354,0.00025353,-0.03512854,0.026040
 17,0.00227296,-0.00141973,-0.00513123,-0.00011248,0.00020029,0.0017431
 6,-0.00006333,0.00031737,-0.00081271,-0.00016511,0.13453857,-0.0020597
 6,0.00037888,0.00038200,0.00278040,0.00177224,0.00069290,-0.00470373,-
 0.00002436,-0.00072605,0.00131098,-0.00945635,-0.00063798,0.00084381,0
 .00161096,-0.00023232,0.00039804,-0.00171621,-0.00031956,-0.12273746,0
 .16910211,-0.00058093,0.00040346,0.00033976,0.00091701,0.00091733,-0.0
 0292108,-0.00096680,-0.00048425,0.00446814,0.00038978,-0.00163466,0.00
 997102,0.00003448,0.00089333,-0.00067977,0.00000370,-0.00065326,-0.000
 42126,-0.01097954,0.01265116,0.02247384,-0.10048418,-0.08936014,-0.006
 28139,-0.03596327,-0.02523347,0.00330715,-0.00136977,0.00006315,0.0022
 2096,0.00005635,0.00028234,-0.00001499,-0.00077456,0.00140766,0.000716
 45,0.00658399,0.00469647,0.00100353,0.00000430,0.00008408,0.00010751,0
 .13283303,-0.08844958,-0.15293821,-0.00555084,-0.01244853,-0.00060657,
 0.00108948,0.00106275,0.00039680,-0.00160131,-0.00023771,0.00040576,0.
 00010470,0.00162846,-0.00163071,-0.00104432,-0.00860406,-0.03719309,-0
 .00753878,0.00001835,0.00026336,-0.00002398,0.10709920,0.19126063,-0.0
 0575287,-0.00576298,-0.04069947,0.00561191,0.00398355,0.00545080,0.001
 67748,-0.00150925,0.00729557,0.00003156,-0.00022908,-0.00006333,0.0007
 1000,-0.00111267,0.00075194,-0.00197631,-0.00986551,0.00481553,-0.0000
 2202,-0.00005439,0.00029909,-0.00039697,0.01380700,0.02555395,-0.02705
 794,0.02709839,0.01248148,-0.06802591,0.06878526,0.01903921,0.00470197
 ,-0.01327026,-0.00243328,-0.00079902,-0.00222455,-0.00006619,-0.000237
 75,-0.00042616,-0.00005418,-0.00258330,0.00021869,0.00232974,-0.000502
 07,-0.00063213,-0.00004569,-0.00084873,0.00030690,-0.00025728,0.095980
 33,0.01226711,-0.00427538,-0.00481509,0.07102441,-0.17044901,-0.040940
 98,-0.00281069,-0.03494001,-0.00867010,-0.00187773,-0.00251989,-0.0001
 4205,0.00063581,0.00136192,0.00000561,-0.00002272,-0.00108929,-0.00193
 957,-0.00050495,0.00003403,-0.00008465,0.00024147,0.00087693,0.0006555
 4,-0.07904653,0.21263936,0.01064005,-0.00829680,0.00311171,0.01828736,
 -0.04073539,-0.05486113,0.00105478,-0.00584930,0.00562641,0.00039435,-
 0.00010694,0.00108656,-0.00049746,-0.00014696,-0.00009555,0.00218466,-
 0.00127834,0.00790779,-0.00007988,0.00006136,0.00025341,-0.00028752,0.
 00064881,-0.00220220,-0.03067544,0.05594270,0.04065733,0.00848435,-0.0
 0675136,-0.00223539,-0.07093536,-0.03330106,-0.00285499,-0.58410223,0.
 06762573,0.00442857,-0.03422196,0.06887872,0.00077417,-0.00391132,-0.0
 0355321,0.00200374,-0.00060363,0.00674986,0.00092678,-0.09940816,0.124
 56241,0.01088866,-0.00050379,-0.00015132,0.00062943,-0.00059124,-0.000
 31375,-0.00050686,0.79739667,-0.00475813,-0.00065064,0.00118509,-0.024
 36191,0.00015985,-0.00159683,0.09991067,-0.06561169,-0.00242992,0.0292
 5697,-0.00607198,-0.00048442,0.00260465,-0.00166320,-0.00041777,0.0004
 0113,-0.00321617,-0.00091808,0.10199790,-0.15580810,-0.01119892,-0.000
 03621,0.00028483,0.00051325,-0.00119297,-0.00139082,-0.00013698,-0.228
 71444,0.23955445,0.00046032,-0.00072409,0.00006957,-0.00272001,-0.0014
 3690,0.01162487,0.00915382,-0.00077971,-0.04615651,0.00209376,-0.00136
 304,-0.00189672,0.00008270,-0.00106136,0.00112016,0.00011573,0.0007029
 2,0.00077896,0.00872814,-0.01082699,-0.03606821,-0.00023403,0.00011021
 ,-0.00064916,-0.00026680,-0.00019231,-0.00027543,-0.01648598,0.0130599
 1,0.10003910,-0.00358428,0.00017654,0.00074792,-0.00236817,0.00714500,
 0.00096635,0.01944976,-0.01448741,-0.00387572,-0.10566446,-0.17429224,
 0.03439449,-0.04419939,-0.02132509,0.01596252,0.00115940,-0.00263671,-
 0.00107242,-0.00010478,0.00135967,-0.00043979,-0.00004374,0.00015340,0
 .00018196,0.00091194,0.00029924,0.00005026,-0.01979951,-0.00772336,0.0
 0108874,0.08992788,0.00493102,-0.00357836,-0.00164527,-0.00498866,-0.0
 0210519,-0.00059351,0.02834668,-0.06323829,0.00230754,-0.17578172,-0.5
 3676797,0.08767107,-0.05046324,-0.01699653,0.01618072,0.00286171,0.008
 73447,0.00011055,0.00201028,0.00402646,-0.00008651,-0.00003567,0.00011
 459,0.00008766,-0.00008517,0.00021802,-0.00016586,-0.01855272,-0.00685
 542,-0.00022866,0.17583748,0.88028076,0.00124423,0.00000851,-0.0002425
 5,0.00058693,-0.00243650,0.00038502,-0.00339656,0.00852185,0.00517273,
 0.03397380,0.09068402,-0.05112018,0.01676638,0.00760929,-0.00432387,-0
 .00084364,0.00074441,0.00067007,0.00030300,-0.00028432,-0.00095504,-0.
 00001487,-0.00007357,-0.00013550,-0.00022787,-0.00005002,0.00008185,0.
 00616300,0.00238663,0.00123460,-0.01880941,-0.11273102,0.08834826,0.00
 010129,-0.00201978,0.00208781,-0.00018881,-0.00032638,-0.00000891,-0.0
 0242260,-0.00063107,0.00096726,-0.02476059,0.01952962,0.01376250,-0.06
 119313,0.06483258,0.01877978,0.00691798,-0.01153741,-0.00232465,-0.000
 18156,-0.00007066,0.00002166,0.00019504,-0.00014966,-0.00015889,-0.000
 08708,0.00015356,-0.00022726,0.00014562,0.00081673,-0.00007050,-0.0048
 7811,0.00116554,0.00233212,0.08614976,-0.00280125,-0.00115788,-0.00097
 006,0.00035462,0.00066218,0.00006472,-0.00050743,-0.00008479,-0.000123
 88,0.00917737,-0.00133565,-0.00414512,0.06479819,-0.17544749,-0.045464
 22,0.00074586,-0.04353241,-0.00922600,-0.00004570,-0.00009167,-0.00008
 691,0.00016402,-0.00039599,-0.00008412,0.00006741,-0.00020406,0.000103
 22,-0.00015857,-0.00019624,0.00007961,-0.00096919,0.00058542,0.0002064
 1,-0.07079364,0.22112144,0.00153070,-0.00064536,0.00718657,0.00057967,
 0.00027838,0.00002124,0.00069159,0.00003826,0.00082322,0.00989291,-0.0
 0840995,0.00125572,0.02004694,-0.04515558,-0.05401732,-0.00024457,-0.0
 0620620,0.00501918,0.00004230,-0.00003359,0.00028997,-0.00013651,0.000
 10892,-0.00016989,-0.00012157,0.00008933,-0.00078855,0.00013491,-0.000
 27694,-0.00039185,0.00282412,0.00050081,-0.00044646,-0.03414744,0.0590
 6007,0.04297600,-0.01924889,0.01228833,0.01023282,-0.00002978,0.000755
 38,0.00065678,0.00024509,0.00003604,-0.00014651,-0.00051805,-0.0017205
 7,0.00227706,-0.02778184,-0.01489792,0.00744760,-0.20318727,-0.0014397
 5,0.04825534,-0.00006388,0.00003969,0.00003693,0.00050853,0.00026013,-
 0.00007826,-0.00020746,0.00011845,-0.00016028,0.00006588,-0.00007586,-
 0.00005353,-0.00071963,0.00026166,0.00039707,0.00020755,-0.00063153,-0
 .00090945,0.25025347,0.02550408,-0.00718186,-0.01038622,0.00064088,-0.
 00265639,-0.00095943,0.00010861,0.00003437,0.00001918,-0.00226897,-0.0
 0191571,-0.00104560,-0.02864972,-0.00713541,0.00627133,-0.00096009,-0.
 03343587,0.00177894,0.00003158,0.00000087,-0.00000486,0.00085000,-0.00
 029936,-0.00033827,0.00047547,0.00001576,0.00014056,-0.00001169,0.0000
 4590,0.00001698,0.00016330,0.00030667,-0.00021969,-0.00072140,-0.00041
 490,0.00056512,0.00517814,0.05274236,0.01219937,-0.00575909,0.00295960
 ,0.00088242,-0.00113493,0.00112337,0.00007657,-0.00011578,-0.00035262,
 0.00159888,-0.00100513,0.00714056,0.00550046,0.00257610,0.00491413,0.0
 4824684,0.00112294,-0.05747323,0.00004670,-0.00000336,0.00004793,0.000
 08603,-0.00015470,-0.00001627,0.00006113,0.00006575,-0.00057735,-0.000
 11429,-0.00007821,-0.00011715,0.00038858,0.00009267,0.00041456,-0.0009
 2120,0.00055000,-0.00190842,-0.06762244,0.00389132,0.04434202,0.000471
 28,-0.00016765,-0.00013658,0.00037198,-0.00116339,-0.00016716,-0.00215
 829,0.00271480,0.00259724,0.00833488,-0.01710872,-0.00177133,-0.000359
 27,0.00031906,0.00034209,0.00006540,0.00053279,0.00005746,-0.00001820,
 -0.00014263,-0.00021101,0.00000946,0.00000948,-0.00000457,-0.00014859,
 -0.00010779,0.00004353,0.00245995,0.00110157,0.00004139,-0.01028745,0.
 01467266,-0.00392450,-0.00017394,-0.00008766,0.00015591,0.00004955,0.0
 0001172,-0.00003093,0.02890076,-0.00014152,0.00032826,0.00009630,0.000
 16426,0.00009100,0.00005398,-0.00107531,-0.00090029,0.00044651,-0.0040
 6980,-0.02436762,0.00287734,0.00053245,-0.00063809,0.00012976,0.000207
 21,-0.00067787,-0.00012953,0.00026494,-0.00005658,-0.00003141,-0.00006
 711,-0.00012559,-0.00002113,0.00004498,-0.00008329,-0.00000453,-0.0007
 5103,-0.00039054,-0.00002500,0.00472123,-0.23824039,0.01343070,-0.0002
 0133,0.00034665,0.00008994,-0.00023598,0.00005698,0.00002503,-0.005766
 36,0.26753869,-0.00007832,-0.00011379,-0.00008368,-0.00050603,0.000764
 19,0.00006311,0.00339981,-0.00064135,0.00540213,-0.00288064,0.00696565
 ,-0.00029686,0.00012943,-0.00005772,0.00106906,0.00002542,0.00006799,0
 .00009057,-0.00001982,0.00014831,-0.00040660,0.00001343,0.00000562,0.0
 0004909,0.00015680,0.00007010,0.00018291,-0.00084487,-0.00076684,-0.00
 044447,-0.00349242,0.01035899,-0.02169902,0.00012393,0.00001939,0.0002
 0263,-0.00002656,0.00002736,-0.00013913,-0.00360763,-0.01576188,0.0166
 2778,0.00740555,-0.00207383,-0.00168420,-0.00154851,-0.00699594,-0.000
 67646,-0.00290672,0.01595926,0.00335315,-0.02308021,-0.01636038,0.0075
 1406,-0.00065088,-0.00822857,-0.00027240,-0.00368423,0.00851211,0.0024
 5689,0.00069012,-0.00116497,0.00011472,-0.00008964,-0.00034769,-0.0002
 4067,-0.00067560,-0.00009667,-0.00020071,0.02412478,0.01580642,0.00020
 896,0.10860203,0.01400103,-0.03295668,0.00001978,0.00044817,-0.0003527
 5,0.00064439,-0.00044002,-0.00031085,-0.02641974,0.00644133,0.00712110
 ,0.06169844,-0.00383403,0.00073153,0.00089397,0.00175760,0.00300715,-0
 .00041317,-0.00067646,-0.00416342,-0.00128068,-0.00743464,0.00050737,0
 .00268129,0.00117385,0.00153561,0.00053356,0.00051542,-0.00341225,-0.0
 0067424,-0.00283042,-0.00153694,-0.00057422,0.00023822,0.00043893,0.00
 016752,0.00013324,0.00018214,0.00014197,-0.00032401,-0.01775125,0.0055
 7392,-0.01888100,-0.02705393,0.00507904,0.00006862,-0.00059197,-0.0000
 5255,0.00002734,0.00000210,-0.00012640,0.00938856,-0.00490135,-0.00271
 043,-0.07949320,0.13906935,0.00071926,0.00011719,0.00018071,0.00028417
 ,-0.00066975,-0.00029868,-0.00409885,0.00151576,-0.00217466,0.00229675
 ,-0.00081493,-0.00192584,0.00127430,0.00058381,0.00489548,0.00040963,0
 .00024348,0.00013298,0.00144018,0.00034317,0.00012814,-0.00008516,-0.0
 0018407,-0.00008827,-0.00003935,-0.00020984,-0.00025128,0.00066838,0.0
 0740007,0.00213328,0.00197613,0.00007548,-0.02687991,-0.00031025,0.000
 20349,-0.00019198,-0.00029895,0.00017047,-0.00045918,0.00270861,-0.000
 97884,-0.00081094,0.09253202,-0.08891397,0.12978255,-0.00094094,-0.000
 03343,0.00000941,0.00050766,0.00034302,0.00098628,-0.00139878,-0.00033
 865,0.00046740,0.00062666,-0.00272518,-0.00020173,0.00006393,0.0010777
 8,-0.00061807,0.00020587,-0.00069325,-0.00005945,-0.00174042,-0.001159
 73,0.00059378,0.00005550,0.00019250,-0.00003235,-0.00002832,0.00007612
 ,0.00008901,0.00320677,-0.00164564,-0.00897542,-0.00180753,0.00013406,
 0.00107931,0.00000279,-0.00011169,0.00012495,0.00010688,0.00001371,0.0
 0004672,0.00092902,0.00023322,0.00016916,-0.00163494,0.00633310,-0.021
 33252,0.03257312,-0.00132298,0.00025453,0.00019500,0.00096496,0.000688
 71,0.00111403,-0.00296598,-0.00017753,0.00018262,-0.00059496,-0.002464
 91,-0.00046453,0.00068876,0.00079661,0.00010475,0.00018229,-0.00114727
 ,-0.00013784,-0.00045186,-0.00068058,0.00085080,0.00006931,0.00017973,
 -0.00006356,0.00002314,0.00001685,0.00005888,-0.00040734,-0.00249549,-
 0.00962109,0.00126479,0.00162619,-0.00104349,0.00002211,-0.00016983,-0
 .00009877,0.00004153,-0.00000681,-0.00004185,-0.00060450,-0.00081036,-
 0.00007548,0.00736878,-0.00101906,0.01504277,0.00727282,0.01986142,-0.
 00368722,-0.00008479,0.00085892,0.00080197,0.00256310,-0.00003205,0.00
 106092,-0.00636414,-0.00110767,-0.00110241,-0.00140654,-0.00007864,0.0
 0126324,0.00152158,0.00048877,0.00019080,-0.00253508,-0.00055095,-0.00
 376276,-0.00045253,-0.00054828,0.00028302,0.00070455,0.00011620,-0.000
 00384,0.00044633,0.00014776,-0.00811645,-0.00853716,-0.00114888,-0.000
 92615,0.00154670,-0.00061709,0.00013392,-0.00054523,-0.00032477,0.0003
 6873,-0.00003192,-0.00022968,0.00011506,-0.00167707,-0.00049937,0.0007
 9657,-0.00384181,-0.01458085,0.08804999,0.03181484,0.47302544,0.001139
 88,-0.00004915,-0.00004732,-0.00192552,0.00062475,-0.00057317,-0.00273
 674,-0.01052907,-0.00242132,0.00098958,0.00889069,-0.00125461,0.000162
 68,-0.00154210,0.00203170,0.00015803,0.00048206,-0.00004091,0.00375078
 ,0.00129132,0.00011574,-0.00016831,-0.00034322,0.00007802,0.00019898,-
 0.00003591,-0.00010800,-0.02180529,0.01661385,0.00683272,-0.02659290,0
 .00568616,-0.00267400,0.00014612,0.00035082,-0.00011119,-0.00032428,0.
 00007385,-0.00013458,-0.00202643,-0.00030072,0.00031734,-0.14249821,0.
 09383989,-0.07814547,-0.03072773,-0.01155091,-0.07546242,0.22226222,0.
 00937194,-0.00191542,-0.00204793,-0.00391435,-0.00636836,-0.00124934,0
 .00071759,0.00812295,0.00244111,-0.00377054,0.00459232,0.00163004,-0.0
 0380615,-0.00681996,-0.00022167,-0.00226871,0.00894362,0.00194560,-0.0
 0041326,-0.00781939,-0.00085231,-0.00046280,-0.00103142,-0.00017431,-0
 .00027634,-0.00039335,-0.00037685,0.02517593,0.02205705,0.00671486,0.0
 4919620,-0.00105505,-0