 Default is to use a total of   8 processors:
                                8 via shared-memory
                                1 via Linda
 Entering Link 1 = C:\G16W\l1.exe PID=     22888.
  
 Copyright (c) 1988-2019, Gaussian, Inc.  All Rights Reserved.
  
 This is part of the Gaussian(R) 16 program.  It is based on
 the Gaussian(R) 09 system (copyright 2009, Gaussian, Inc.),
 the Gaussian(R) 03 system (copyright 2003, Gaussian, Inc.),
 the Gaussian(R) 98 system (copyright 1998, Gaussian, Inc.),
 the Gaussian(R) 94 system (copyright 1995, Gaussian, Inc.),
 the Gaussian 92(TM) system (copyright 1992, Gaussian, Inc.),
 the Gaussian 90(TM) system (copyright 1990, Gaussian, Inc.),
 the Gaussian 88(TM) system (copyright 1988, Gaussian, Inc.),
 the Gaussian 86(TM) system (copyright 1986, Carnegie Mellon
 University), and the Gaussian 82(TM) system (copyright 1983,
 Carnegie Mellon University). Gaussian is a federally registered
 trademark of Gaussian, Inc.
  
 This software contains proprietary and confidential information,
 including trade secrets, belonging to Gaussian, Inc.
  
 This software is provided under written license and may be
 used, copied, transmitted, or stored only in accord with that
 written license.
  
 The following legend is applicable only to US Government
 contracts under FAR:
  
                    RESTRICTED RIGHTS LEGEND
  
 Use, reproduction and disclosure by the US Government is
 subject to restrictions as set forth in subparagraphs (a)
 and (c) of the Commercial Computer Software - Restricted
 Rights clause in FAR 52.227-19.
  
 Gaussian, Inc.
 340 Quinnipiac St., Bldg. 40, Wallingford CT 06492
  
  
 ---------------------------------------------------------------
 Warning -- This program may not be used in any manner that
 competes with the business of Gaussian, Inc. or will provide
 assistance to any competitor of Gaussian, Inc.  The licensee
 of this program is prohibited from giving any competitor of
 Gaussian, Inc. access to this program.  By using this program,
 the user acknowledges that Gaussian, Inc. is engaged in the
 business of creating and licensing software in the field of
 computational chemistry and represents and warrants to the
 licensee that it is not a competitor of Gaussian, Inc. and that
 it will not use this program in any manner prohibited above.
 ---------------------------------------------------------------
  

 Cite this work as:
 Gaussian 16, Revision C.01,
 M. J. Frisch, G. W. Trucks, H. B. Schlegel, G. E. Scuseria, 
 M. A. Robb, J. R. Cheeseman, G. Scalmani, V. Barone, 
 G. A. Petersson, H. Nakatsuji, X. Li, M. Caricato, A. V. Marenich, 
 J. Bloino, B. G. Janesko, R. Gomperts, B. Mennucci, H. P. Hratchian, 
 J. V. Ortiz, A. F. Izmaylov, J. L. Sonnenberg, D. Williams-Young, 
 F. Ding, F. Lipparini, F. Egidi, J. Goings, B. Peng, A. Petrone, 
 T. Henderson, D. Ranasinghe, V. G. Zakrzewski, J. Gao, N. Rega, 
 G. Zheng, W. Liang, M. Hada, M. Ehara, K. Toyota, R. Fukuda, 
 J. Hasegawa, M. Ishida, T. Nakajima, Y. Honda, O. Kitao, H. Nakai, 
 T. Vreven, K. Throssell, J. A. Montgomery, Jr., J. E. Peralta, 
 F. Ogliaro, M. J. Bearpark, J. J. Heyd, E. N. Brothers, K. N. Kudin, 
 V. N. Staroverov, T. A. Keith, R. Kobayashi, J. Normand, 
 K. Raghavachari, A. P. Rendell, J. C. Burant, S. S. Iyengar, 
 J. Tomasi, M. Cossi, J. M. Millam, M. Klene, C. Adamo, R. Cammi, 
 J. W. Ochterski, R. L. Martin, K. Morokuma, O. Farkas, 
 J. B. Foresman, and D. J. Fox, Gaussian, Inc., Wallingford CT, 2019.
 
 ******************************************
 Gaussian 16:  EM64W-G16RevC.01 30-May-2019
                14-Nov-2025 
 ******************************************
 %chk=C:\Users\al6323\OneDrive - Imperial College London\Desktop\TSR20251114\TS_u
 nfreeze_Berny_opt+freq.chk
 Default route: MaxDisk=10GB
 ----------------------------------------------------------------------
 # opt=(calcfc,tight,ts,noeigen) freq rpm6 nosymm geom=connectivity scf
 =(xqc,verytight)
 ----------------------------------------------------------------------
 1/5=1,7=10,10=4,11=1,18=20,26=1,38=1,57=2/1,3;
 2/9=110,12=2,15=1,17=6,18=5,40=1/2;
 3/5=2,25=1,41=3900000,71=2,116=1,140=1/1,2,3;
 4/35=1/1;
 5/5=2,8=3,13=1,17=3,35=1,38=5/2,8;
 8/6=4,10=90,11=11/1;
 11/6=1,8=1,9=11,15=111,16=1,31=1/1,2,10;
 10/6=1,13=1,31=1/2;
 6/7=2,8=2,9=2,10=2,28=1/1;
 7/10=1,25=1,30=1/1,2,3,16;
 1/5=1,7=10,10=4,11=1,18=20,26=1/3(2);
 2/9=110,15=1/2;
 99//99;
 2/9=110,15=1/2;
 3/5=2,25=1,41=3900000,71=1,116=1,135=20/1,2,3;
 4/5=5,16=3,35=1/1;
 5/5=2,8=3,13=1,17=3,35=1,38=5/2,8;
 7/30=1/1,2,3,16;
 1/5=1,7=10,11=1,18=20,26=1/3(-5);
 2/9=110,15=1/2;
 6/7=2,8=2,9=2,10=2,19=2,28=1/1;
 99/9=1/99;
 -------------------
 Title Card Required
 -------------------
 Symbolic Z-matrix:
 Charge =  0 Multiplicity = 1
 C                    -5.59692  -1.6647    0.01952 
 C                    -4.28262  -1.73319  -0.26727 
 C                    -3.377    -0.56771  -0.18579 
 C                    -4.05071   0.75046  -0.03244 
 C                    -5.46745   0.73994   0.41112 
 C                    -6.18797  -0.39853   0.42186 
 H                    -1.42926  -1.56731  -0.2712 
 H                    -6.24862  -2.53389  -0.02937 
 H                    -3.80973  -2.67326  -0.55678 
 C                    -2.07193  -0.73969  -0.19903 
 C                    -3.57019   1.95067  -0.25964 
 H                    -5.89639   1.69065   0.72165 
 H                    -7.23302  -0.40812   0.73623 
 H                    -3.5923    2.99638  -0.32484 
 O                    -1.66642   2.05734  -0.86321 
 O                    -0.43115   1.31589   1.28566 
 S                    -0.65063   1.19306  -0.13292 
 

 GradGradGradGradGradGradGradGradGradGradGradGradGradGradGradGradGradGrad
 Berny optimization.
 Initialization pass.
                           ----------------------------
                           !    Initial Parameters    !
                           ! (Angstroms and Degrees)  !
 --------------------------                            --------------------------
 ! Name  Definition              Value          Derivative Info.                !
 --------------------------------------------------------------------------------
 ! R1    R(1,2)                  1.347          calculate D2E/DX2 analytically  !
 ! R2    R(1,6)                  1.4541         calculate D2E/DX2 analytically  !
 ! R3    R(1,8)                  1.0875         calculate D2E/DX2 analytically  !
 ! R4    R(2,3)                  1.4782         calculate D2E/DX2 analytically  !
 ! R5    R(2,9)                  1.0914         calculate D2E/DX2 analytically  !
 ! R6    R(3,4)                  1.4883         calculate D2E/DX2 analytically  !
 ! R7    R(3,10)                 1.3164         calculate D2E/DX2 analytically  !
 ! R8    R(4,5)                  1.4846         calculate D2E/DX2 analytically  !
 ! R9    R(4,11)                 1.3126         calculate D2E/DX2 analytically  !
 ! R10   R(5,6)                  1.3474         calculate D2E/DX2 analytically  !
 ! R11   R(5,12)                 1.0882         calculate D2E/DX2 analytically  !
 ! R12   R(6,13)                 1.0914         calculate D2E/DX2 analytically  !
 ! R13   R(7,10)                 1.0503         calculate D2E/DX2 analytically  !
 ! R14   R(10,17)                2.4            calculate D2E/DX2 analytically  !
 ! R15   R(11,14)                1.048          calculate D2E/DX2 analytically  !
 ! R16   R(11,15)                2.0            calculate D2E/DX2 analytically  !
 ! R17   R(15,17)                1.5206         calculate D2E/DX2 analytically  !
 ! R18   R(16,17)                1.4407         calculate D2E/DX2 analytically  !
 ! A1    A(2,1,6)              119.9866         calculate D2E/DX2 analytically  !
 ! A2    A(2,1,8)              122.3119         calculate D2E/DX2 analytically  !
 ! A3    A(6,1,8)              117.6995         calculate D2E/DX2 analytically  !
 ! A4    A(1,2,3)              123.0902         calculate D2E/DX2 analytically  !
 ! A5    A(1,2,9)              121.5369         calculate D2E/DX2 analytically  !
 ! A6    A(3,2,9)              115.3587         calculate D2E/DX2 analytically  !
 ! A7    A(2,3,4)              115.2562         calculate D2E/DX2 analytically  !
 ! A8    A(2,3,10)             120.252          calculate D2E/DX2 analytically  !
 ! A9    A(4,3,10)             124.4385         calculate D2E/DX2 analytically  !
 ! A10   A(3,4,5)              117.1615         calculate D2E/DX2 analytically  !
 ! A11   A(3,4,11)             128.7773         calculate D2E/DX2 analytically  !
 ! A12   A(5,4,11)             114.0496         calculate D2E/DX2 analytically  !
 ! A13   A(4,5,6)              121.2445         calculate D2E/DX2 analytically  !
 ! A14   A(4,5,12)             117.0787         calculate D2E/DX2 analytically  !
 ! A15   A(6,5,12)             121.6763         calculate D2E/DX2 analytically  !
 ! A16   A(1,6,5)              121.0771         calculate D2E/DX2 analytically  !
 ! A17   A(1,6,13)             117.469          calculate D2E/DX2 analytically  !
 ! A18   A(5,6,13)             121.4533         calculate D2E/DX2 analytically  !
 ! A19   A(3,10,7)             135.254          calculate D2E/DX2 analytically  !
 ! A20   A(3,10,17)            118.7911         calculate D2E/DX2 analytically  !
 ! A21   A(7,10,17)            105.9079         calculate D2E/DX2 analytically  !
 ! A22   A(4,11,14)            156.2653         calculate D2E/DX2 analytically  !
 ! A23   A(4,11,15)            116.7088         calculate D2E/DX2 analytically  !
 ! A24   A(14,11,15)            87.0244         calculate D2E/DX2 analytically  !
 ! A25   A(11,15,17)           117.428          calculate D2E/DX2 analytically  !
 ! A26   A(10,17,15)            92.8022         calculate D2E/DX2 analytically  !
 ! A27   A(10,17,16)           100.7193         calculate D2E/DX2 analytically  !
 ! A28   A(15,17,16)           121.7495         calculate D2E/DX2 analytically  !
 ! D1    D(6,1,2,3)              0.4765         calculate D2E/DX2 analytically  !
 ! D2    D(6,1,2,9)            179.0423         calculate D2E/DX2 analytically  !
 ! D3    D(8,1,2,3)           -179.0011         calculate D2E/DX2 analytically  !
 ! D4    D(8,1,2,9)             -0.4353         calculate D2E/DX2 analytically  !
 ! D5    D(2,1,6,5)              5.4128         calculate D2E/DX2 analytically  !
 ! D6    D(2,1,6,13)          -174.2987         calculate D2E/DX2 analytically  !
 ! D7    D(8,1,6,5)           -175.0858         calculate D2E/DX2 analytically  !
 ! D8    D(8,1,6,13)             5.2027         calculate D2E/DX2 analytically  !
 ! D9    D(1,2,3,4)            -11.8362         calculate D2E/DX2 analytically  !
 ! D10   D(1,2,3,10)           165.6262         calculate D2E/DX2 analytically  !
 ! D11   D(9,2,3,4)            169.5165         calculate D2E/DX2 analytically  !
 ! D12   D(9,2,3,10)           -13.0211         calculate D2E/DX2 analytically  !
 ! D13   D(2,3,4,5)             17.2376         calculate D2E/DX2 analytically  !
 ! D14   D(2,3,4,11)          -161.4452         calculate D2E/DX2 analytically  !
 ! D15   D(10,3,4,5)          -160.1045         calculate D2E/DX2 analytically  !
 ! D16   D(10,3,4,11)           21.2127         calculate D2E/DX2 analytically  !
 ! D17   D(2,3,10,7)             1.0218         calculate D2E/DX2 analytically  !
 ! D18   D(2,3,10,17)          178.1223         calculate D2E/DX2 analytically  !
 ! D19   D(4,3,10,7)           178.2389         calculate D2E/DX2 analytically  !
 ! D20   D(4,3,10,17)           -4.6606         calculate D2E/DX2 analytically  !
 ! D21   D(3,4,5,6)            -12.6317         calculate D2E/DX2 analytically  !
 ! D22   D(3,4,5,12)           167.6258         calculate D2E/DX2 analytically  !
 ! D23   D(11,4,5,6)           166.2439         calculate D2E/DX2 analytically  !
 ! D24   D(11,4,5,12)          -13.4986         calculate D2E/DX2 analytically  !
 ! D25   D(3,4,11,14)          178.0641         calculate D2E/DX2 analytically  !
 ! D26   D(3,4,11,15)           -1.2347         calculate D2E/DX2 analytically  !
 ! D27   D(5,4,11,14)           -0.6525         calculate D2E/DX2 analytically  !
 ! D28   D(5,4,11,15)         -179.9514         calculate D2E/DX2 analytically  !
 ! D29   D(4,5,6,1)              1.0206         calculate D2E/DX2 analytically  !
 ! D30   D(4,5,6,13)          -179.2795         calculate D2E/DX2 analytically  !
 ! D31   D(12,5,6,1)          -179.2488         calculate D2E/DX2 analytically  !
 ! D32   D(12,5,6,13)            0.4511         calculate D2E/DX2 analytically  !
 ! D33   D(3,10,17,15)         -30.3669         calculate D2E/DX2 analytically  !
 ! D34   D(3,10,17,16)          92.6891         calculate D2E/DX2 analytically  !
 ! D35   D(7,10,17,15)         147.5111         calculate D2E/DX2 analytically  !
 ! D36   D(7,10,17,16)         -89.4329         calculate D2E/DX2 analytically  !
 ! D37   D(4,11,15,17)         -44.5211         calculate D2E/DX2 analytically  !
 ! D38   D(14,11,15,17)        135.7615         calculate D2E/DX2 analytically  !
 ! D39   D(11,15,17,10)         45.5459         calculate D2E/DX2 analytically  !
 ! D40   D(11,15,17,16)        -58.8889         calculate D2E/DX2 analytically  !
 --------------------------------------------------------------------------------
 Trust Radius=3.00D-01 FncErr=1.00D-07 GrdErr=1.00D-07 EigMax=2.50D+02 EigMin=1.00D-04
 Number of steps in this run=     96 maximum allowed number of steps=    102.
 Search for a saddle point of order  1.
 GradGradGradGradGradGradGradGradGradGradGradGradGradGradGradGradGradGrad

                          Input orientation:                          
 ---------------------------------------------------------------------
 Center     Atomic      Atomic             Coordinates (Angstroms)
 Number     Number       Type             X           Y           Z
 ---------------------------------------------------------------------
      1          6           0       -5.596925   -1.664704    0.019521
      2          6           0       -4.282619   -1.733193   -0.267273
      3          6           0       -3.376996   -0.567710   -0.185786
      4          6           0       -4.050705    0.750456   -0.032443
      5          6           0       -5.467449    0.739941    0.411124
      6          6           0       -6.187972   -0.398526    0.421857
      7          1           0       -1.429257   -1.567306   -0.271204
      8          1           0       -6.248616   -2.533894   -0.029369
      9          1           0       -3.809735   -2.673257   -0.556781
     10          6           0       -2.071925   -0.739690   -0.199031
     11          6           0       -3.570185    1.950674   -0.259638
     12          1           0       -5.896392    1.690653    0.721654
     13          1           0       -7.233020   -0.408123    0.736229
     14          1           0       -3.592298    2.996385   -0.324836
     15          8           0       -1.666420    2.057344   -0.863212
     16          8           0       -0.431153    1.315893    1.285659
     17         16           0       -0.650625    1.193064   -0.132918
 ---------------------------------------------------------------------
                    Distance matrix (angstroms):
                    1          2          3          4          5
     1  C    0.000000
     2  C    1.346974   0.000000
     3  C    2.484679   1.478223   0.000000
     4  C    2.868186   2.505482   1.488274   0.000000
     5  C    2.439761   2.824966   2.536976   1.484596   0.000000
     6  C    1.454105   2.426233   2.880875   2.468696   1.347358
     7  H    4.178931   2.858184   2.190930   3.507281   4.700634
     8  H    1.087466   2.136086   3.483754   3.951933   3.394444
     9  H    2.131513   1.091401   2.181336   3.472003   3.915964
    10  C    3.650895   2.424639   1.316420   2.482712   3.753822
    11  C    4.154102   3.752132   2.526863   1.312647   2.348490
    12  H    3.441089   3.912155   3.503000   2.204357   1.088244
    13  H    2.183913   3.386398   3.967935   3.472793   2.130958
    14  H    5.085554   4.780037   3.573299   2.310807   3.024793
    15  O    5.484681   4.644115   3.205602   2.843053   4.219870
    16  O    6.096906   5.151923   3.793561   3.893362   5.144007
    17  S    5.714539   4.666092   3.245954   3.430239   4.868583
                    6          7          8          9         10
     6  C    0.000000
     7  H    4.948914   0.000000
     8  H    2.183364   4.921280   0.000000
     9  H    3.433387   2.640333   2.499145   0.000000
    10  C    4.176570   1.050323   4.548923   2.624242   0.000000
    11  C    3.582734   4.118239   5.228610   4.639657   3.080019
    12  H    2.130626   5.617416   4.305217   5.003223   4.623935
    13  H    1.091351   6.003524   2.464568   4.303672   5.255621
    14  H    4.338259   5.050633   6.142256   5.678548   4.035544
    15  O    5.303502   3.680326   6.539975   5.202526   2.903269
    16  O    6.068472   3.425327   7.098804   5.542807   3.020241
    17  S    5.788190   2.871416   6.725952   5.010795   2.400001
                   11         12         13         14         15
    11  C    0.000000
    12  H    2.538066   0.000000
    13  H    4.469008   2.488302   0.000000
    14  H    1.047974   2.847618   5.096214   0.000000
    15  O    2.000000   4.531989   6.294742   2.209219   0.000000
    16  O    3.555898   5.507030   7.038430   3.925631   2.587137
    17  S    3.018918   5.338160   6.829871   3.455754   1.520575
                   16         17
    16  O    0.000000
    17  S    1.440700   0.000000
 Symmetry turned off by external request.
 Stoichiometry    C8H6O2S
 Framework group  C1[X(C8H6O2S)]
 Deg. of freedom    45
 Full point group                 C1      NOp   1
 Rotational constants (GHZ):           2.3063967           0.6075489           0.5283045
 Standard basis: VSTO-6G (5D, 7F)
    55 basis functions,   336 primitive gaussians,    56 cartesian basis functions
    28 alpha electrons       28 beta electrons
       nuclear repulsion energy       312.8447080705 Hartrees.
 Integral buffers will be    131072 words long.
 Regular integral format.
 Two-electron integral symmetry is turned off.
 Do NDO integrals.
 One-electron integrals computed using PRISM.
 NBasis=    55 RedAO= F EigKep=  0.00D+00  NBF=    55
 NBsUse=    55 1.00D-04 EigRej=  0.00D+00 NBFU=    55
 Nonelectrostatic core Hamiltonian diagonalized for initial guess.
 Keep J ints in memory in canonical form, NReq=1858957.
 Overlap will be assumed to be unity.
 Requested convergence on RMS density matrix=1.00D-08 within  32 cycles.
 Requested convergence on MAX density matrix=1.00D-06.
 Requested convergence on             energy=1.00D-06.
 No special actions if energy rises.
 SCF Done:  E(RPM6) =  0.138084089716     A.U. after   24 cycles
            NFock= 23  Conv=0.35D-08     -V/T= 1.0013
 QCSCF skips out because SCF is already converged.
 Range of M.O.s used for correlation:     1    55
 NBasis=    55 NAE=    28 NBE=    28 NFC=     0 NFV=     0
 NROrb=     55 NOA=    28 NOB=    28 NVA=    27 NVB=    27
 Symmetrizing basis deriv contribution to polar:
 IMax=3 JMax=2 DiffMx= 0.00D+00
 G2DrvN: will do    18 centers at a time, making    1 passes.
 Calling FoFCou, ICntrl=  3107 FMM=F I1Cent=   0 AccDes= 0.00D+00.
 End of G2Drv F.D. properties file   721 does not exist.
 End of G2Drv F.D. properties file   722 does not exist.
 End of G2Drv F.D. properties file   788 does not exist.
          IDoAtm=11111111111111111
          Differentiating once with respect to nuclear coordinates.
          Electric field/nuclear overlap derivatives assumed to be zero.
 Keep J ints in memory in canonical form, NReq=1860754.
          There are    54 degrees of freedom in the 1st order CPHF.  IDoFFX=5 NUNeed=    54.
 LinEq1:  Iter=  0 NonCon=    51 RMS=1.40D-02 Max=1.20D-01 NDo=    51
 AX will form    54 AO Fock derivatives at one time.
 LinEq1:  Iter=  1 NonCon=    51 RMS=5.66D-03 Max=7.48D-02 NDo=    54
 LinEq1:  Iter=  2 NonCon=    51 RMS=1.14D-03 Max=1.13D-02 NDo=    54
 LinEq1:  Iter=  3 NonCon=    51 RMS=3.10D-04 Max=4.16D-03 NDo=    54
 LinEq1:  Iter=  4 NonCon=    51 RMS=9.78D-05 Max=1.06D-03 NDo=    54
 LinEq1:  Iter=  5 NonCon=    51 RMS=3.15D-05 Max=4.23D-04 NDo=    54
 LinEq1:  Iter=  6 NonCon=    51 RMS=8.21D-06 Max=6.68D-05 NDo=    54
 LinEq1:  Iter=  7 NonCon=    51 RMS=2.51D-06 Max=2.42D-05 NDo=    54
 LinEq1:  Iter=  8 NonCon=    51 RMS=6.21D-07 Max=6.49D-06 NDo=    54
 LinEq1:  Iter=  9 NonCon=    39 RMS=1.64D-07 Max=1.42D-06 NDo=    54
 LinEq1:  Iter= 10 NonCon=    21 RMS=3.58D-08 Max=3.34D-07 NDo=    39
 LinEq1:  Iter= 11 NonCon=     0 RMS=7.03D-09 Max=7.65D-08 NDo=    21
 Linear equations converged to 1.000D-08 1.000D-07 after    11 iterations.
 End of Minotr F.D. properties file   721 does not exist.
 End of Minotr F.D. properties file   722 does not exist.
 End of Minotr F.D. properties file   788 does not exist.

 **********************************************************************

            Population analysis using the SCF Density.

 **********************************************************************

 Alpha  occ. eigenvalues --   -1.15190  -1.09966  -1.04927  -1.01641  -0.98857
 Alpha  occ. eigenvalues --   -0.90232  -0.81775  -0.77800  -0.75649  -0.69848
 Alpha  occ. eigenvalues --   -0.64377  -0.61177  -0.59305  -0.55604  -0.53879
 Alpha  occ. eigenvalues --   -0.53270  -0.51910  -0.51604  -0.50553  -0.47806
 Alpha  occ. eigenvalues --   -0.45620  -0.43605  -0.43018  -0.41427  -0.39909
 Alpha  occ. eigenvalues --   -0.36838  -0.32762  -0.30268
 Alpha virt. eigenvalues --   -0.04743  -0.03135  -0.00143   0.02147   0.03057
 Alpha virt. eigenvalues --    0.04145   0.08175   0.08849   0.12854   0.13359
 Alpha virt. eigenvalues --    0.13965   0.15745   0.16625   0.18362   0.19243
 Alpha virt. eigenvalues --    0.19739   0.20036   0.21044   0.21504   0.22058
 Alpha virt. eigenvalues --    0.23338   0.24496   0.24769   0.25477   0.26271
 Alpha virt. eigenvalues --    0.26606   0.29852
          Condensed to atoms (all electrons):
               1          2          3          4          5          6
     1  C    4.243840   0.000000   0.000000   0.000000   0.000000   0.000000
     2  C    0.000000   4.063277   0.000000   0.000000   0.000000   0.000000
     3  C    0.000000   0.000000   4.019930   0.000000   0.000000   0.000000
     4  C    0.000000   0.000000   0.000000   3.977734   0.000000   0.000000
     5  C    0.000000   0.000000   0.000000   0.000000   4.236919   0.000000
     6  C    0.000000   0.000000   0.000000   0.000000   0.000000   4.027381
     7  H    0.000000   0.000000   0.000000   0.000000   0.000000   0.000000
     8  H    0.000000   0.000000   0.000000   0.000000   0.000000   0.000000
     9  H    0.000000   0.000000   0.000000   0.000000   0.000000   0.000000
    10  C    0.000000   0.000000   0.000000   0.000000   0.000000   0.000000
    11  C    0.000000   0.000000   0.000000   0.000000   0.000000   0.000000
    12  H    0.000000   0.000000   0.000000   0.000000   0.000000   0.000000
    13  H    0.000000   0.000000   0.000000   0.000000   0.000000   0.000000
    14  H    0.000000   0.000000   0.000000   0.000000   0.000000   0.000000
    15  O    0.000000   0.000000   0.000000   0.000000   0.000000   0.000000
    16  O    0.000000   0.000000   0.000000   0.000000   0.000000   0.000000
    17  S    0.000000   0.000000   0.000000   0.000000   0.000000   0.000000
               7          8          9         10         11         12
     1  C    0.000000   0.000000   0.000000   0.000000   0.000000   0.000000
     2  C    0.000000   0.000000   0.000000   0.000000   0.000000   0.000000
     3  C    0.000000   0.000000   0.000000   0.000000   0.000000   0.000000
     4  C    0.000000   0.000000   0.000000   0.000000   0.000000   0.000000
     5  C    0.000000   0.000000   0.000000   0.000000   0.000000   0.000000
     6  C    0.000000   0.000000   0.000000   0.000000   0.000000   0.000000
     7  H    0.847635   0.000000   0.000000   0.000000   0.000000   0.000000
     8  H    0.000000   0.842191   0.000000   0.000000   0.000000   0.000000
     9  H    0.000000   0.000000   0.853625   0.000000   0.000000   0.000000
    10  C    0.000000   0.000000   0.000000   4.406615   0.000000   0.000000
    11  C    0.000000   0.000000   0.000000   0.000000   3.884117   0.000000
    12  H    0.000000   0.000000   0.000000   0.000000   0.000000   0.841825
    13  H    0.000000   0.000000   0.000000   0.000000   0.000000   0.000000
    14  H    0.000000   0.000000   0.000000   0.000000   0.000000   0.000000
    15  O    0.000000   0.000000   0.000000   0.000000   0.000000   0.000000
    16  O    0.000000   0.000000   0.000000   0.000000   0.000000   0.000000
    17  S    0.000000   0.000000   0.000000   0.000000   0.000000   0.000000
              13         14         15         16         17
     1  C    0.000000   0.000000   0.000000   0.000000   0.000000
     2  C    0.000000   0.000000   0.000000   0.000000   0.000000
     3  C    0.000000   0.000000   0.000000   0.000000   0.000000
     4  C    0.000000   0.000000   0.000000   0.000000   0.000000
     5  C    0.000000   0.000000   0.000000   0.000000   0.000000
     6  C    0.000000   0.000000   0.000000   0.000000   0.000000
     7  H    0.000000   0.000000   0.000000   0.000000   0.000000
     8  H    0.000000   0.000000   0.000000   0.000000   0.000000
     9  H    0.000000   0.000000   0.000000   0.000000   0.000000
    10  C    0.000000   0.000000   0.000000   0.000000   0.000000
    11  C    0.000000   0.000000   0.000000   0.000000   0.000000
    12  H    0.000000   0.000000   0.000000   0.000000   0.000000
    13  H    0.855302   0.000000   0.000000   0.000000   0.000000
    14  H    0.000000   0.803127   0.000000   0.000000   0.000000
    15  O    0.000000   0.000000   6.664223   0.000000   0.000000
    16  O    0.000000   0.000000   0.000000   6.642944   0.000000
    17  S    0.000000   0.000000   0.000000   0.000000   4.789315
 Mulliken charges:
               1
     1  C   -0.243840
     2  C   -0.063277
     3  C   -0.019930
     4  C    0.022266
     5  C   -0.236919
     6  C   -0.027381
     7  H    0.152365
     8  H    0.157809
     9  H    0.146375
    10  C   -0.406615
    11  C    0.115883
    12  H    0.158175
    13  H    0.144698
    14  H    0.196873
    15  O   -0.664223
    16  O   -0.642944
    17  S    1.210685
 Sum of Mulliken charges =   0.00000
 Mulliken charges with hydrogens summed into heavy atoms:
               1
     1  C   -0.086031
     2  C    0.083098
     3  C   -0.019930
     4  C    0.022266
     5  C   -0.078744
     6  C    0.117316
    10  C   -0.254250
    11  C    0.312756
    15  O   -0.664223
    16  O   -0.642944
    17  S    1.210685
 APT charges:
               1
     1  C   -0.243840
     2  C   -0.063277
     3  C   -0.019930
     4  C    0.022266
     5  C   -0.236919
     6  C   -0.027381
     7  H    0.152365
     8  H    0.157809
     9  H    0.146375
    10  C   -0.406615
    11  C    0.115883
    12  H    0.158175
    13  H    0.144698
    14  H    0.196873
    15  O   -0.664223
    16  O   -0.642944
    17  S    1.210685
 Sum of APT charges =   0.00000
 APT charges with hydrogens summed into heavy atoms:
               1
     1  C   -0.086031
     2  C    0.083098
     3  C   -0.019930
     4  C    0.022266
     5  C   -0.078744
     6  C    0.117316
    10  C   -0.254250
    11  C    0.312756
    15  O   -0.664223
    16  O   -0.642944
    17  S    1.210685
 Charge=              0.0000 electrons
 Dipole moment (field-independent basis, Debye):
    X=             -2.3873    Y=             -0.6997    Z=             -1.7204  Tot=              3.0247
 N-N= 3.128447080705D+02 E-N=-4.815594489923D+02  KE=-1.080774436105D+02
  Exact polarizability:       0.000       0.000       0.000       0.000       0.000       0.000
 Approx polarizability:     132.216      15.850     114.679      -1.243      -0.893      41.885
 Calling FoFJK, ICntrl=    100127 FMM=F ISym2X=0 I1Cent= 0 IOpClX= 0 NMat=1 NMatS=1 NMatT=0.
 -------------------------------------------------------------------
 Center     Atomic                   Forces (Hartrees/Bohr)
 Number     Number              X              Y              Z
 -------------------------------------------------------------------
      1        6           0.000000305    0.000000182   -0.000000019
      2        6          -0.000000233    0.000000163    0.000000100
      3        6           0.000000030   -0.000000044    0.000000059
      4        6           0.000000064    0.000000147   -0.000000074
      5        6          -0.000000037   -0.000000247   -0.000000062
      6        6           0.000000220    0.000000072   -0.000000053
      7        1          -0.000000099    0.000000099    0.000000002
      8        1           0.000000077    0.000000111    0.000000003
      9        1          -0.000000068    0.000000132    0.000000039
     10        6           0.035082758    0.047707796    0.001631866
     11        6           0.064812032    0.003631066   -0.020548005
     12        1           0.000000064   -0.000000137   -0.000000043
     13        1           0.000000170    0.000000004   -0.000000045
     14        1           0.000000015   -0.000000122   -0.000000003
     15        8          -0.064811940   -0.003631681    0.020548269
     16        8          -0.000000095   -0.000000023   -0.000000289
     17       16          -0.035083262   -0.047707520   -0.001631744
 -------------------------------------------------------------------
 Cartesian Forces:  Max     0.064812032 RMS     0.017872651
 FormGI is forming the generalized inverse of G from B-inverse, IUseBI=4.

 GradGradGradGradGradGradGradGradGradGradGradGradGradGradGradGradGradGrad
 Berny optimization.
 Internal  Forces:  Max     0.066395077 RMS     0.009641886
 Search for a saddle point.
 Step number   1 out of a maximum of   96
 All quantities printed in internal units (Hartrees-Bohrs-Radians)
 Swapping is turned off.
 Second derivative matrix not updated -- analytic derivatives used.
 ITU=  0
     Eigenvalues ---   -0.05874  -0.00250   0.00231   0.00391   0.00440
     Eigenvalues ---    0.00660   0.00873   0.01007   0.01475   0.01917
     Eigenvalues ---    0.02141   0.02308   0.02405   0.02918   0.03037
     Eigenvalues ---    0.04498   0.05105   0.06467   0.06972   0.08893
     Eigenvalues ---    0.09734   0.10371   0.10876   0.11034   0.11107
     Eigenvalues ---    0.11630   0.13949   0.14476   0.15428   0.25654
     Eigenvalues ---    0.26004   0.26711   0.27076   0.27597   0.27950
     Eigenvalues ---    0.28757   0.32040   0.36581   0.37186   0.41820
     Eigenvalues ---    0.49570   0.65956   0.70943   0.73835   0.75544
 Eigenvectors required to have negative eigenvalues:
                          R16       R14       A22       A24       R17
   1                    0.81482   0.44489   0.21747  -0.18732  -0.16017
                          A20       A21       D39       A28       A26
   1                    0.07150  -0.05881  -0.05700   0.05497  -0.04401
 RFO step:  Lambda0=5.757687648D-02 Lambda=-2.77150638D-02.
 Linear search not attempted -- option 19 set.
 Maximum step size (   0.300) exceeded in Quadratic search.
    -- Step size scaled by   0.283
 Iteration  1 RMS(Cart)=  0.03317194 RMS(Int)=  0.00284533
 Iteration  2 RMS(Cart)=  0.00309315 RMS(Int)=  0.00012254
 Iteration  3 RMS(Cart)=  0.00000435 RMS(Int)=  0.00012249
 Iteration  4 RMS(Cart)=  0.00000000 RMS(Int)=  0.00012249
 Variable       Old X    -DE/DX   Delta X   Delta X   Delta X     New X
                                 (Linear)    (Quad)   (Total)
    R1        2.54541   0.00019   0.00000   0.00106   0.00106   2.54647
    R2        2.74786   0.00046   0.00000  -0.00239  -0.00241   2.74545
    R3        2.05501   0.00000   0.00000  -0.00014  -0.00014   2.05487
    R4        2.79344  -0.00025   0.00000  -0.00292  -0.00290   2.79054
    R5        2.06245   0.00000   0.00000   0.00108   0.00108   2.06353
    R6        2.81243  -0.00268   0.00000   0.00499   0.00519   2.81762
    R7        2.48767  -0.00157   0.00000   0.00126   0.00145   2.48913
    R8        2.80548  -0.00019   0.00000   0.00158   0.00158   2.80706
    R9        2.48054  -0.00075   0.00000  -0.01177  -0.01173   2.46881
   R10        2.54614   0.00026   0.00000   0.00082   0.00080   2.54694
   R11        2.05648   0.00000   0.00000  -0.00084  -0.00084   2.05565
   R12        2.06235   0.00000   0.00000   0.00104   0.00104   2.06340
   R13        1.98482   0.00000   0.00000   0.00373   0.00373   1.98856
   R14        4.53534  -0.05865   0.00000  -0.09772  -0.09769   4.43765
   R15        1.98038   0.00000   0.00000  -0.00522  -0.00522   1.97516
   R16        3.77945  -0.06640   0.00000   0.22418   0.22404   4.00349
   R17        2.87347   0.00106   0.00000  -0.03939  -0.03960   2.83387
   R18        2.72253   0.00000   0.00000   0.00112   0.00112   2.72365
    A1        2.09416  -0.00004   0.00000  -0.00091  -0.00090   2.09326
    A2        2.13475   0.00002   0.00000  -0.00032  -0.00032   2.13442
    A3        2.05424   0.00002   0.00000   0.00122   0.00122   2.05546
    A4        2.14833  -0.00077   0.00000   0.00442   0.00447   2.15280
    A5        2.12122   0.00038   0.00000  -0.00203  -0.00206   2.11916
    A6        2.01339   0.00038   0.00000  -0.00240  -0.00242   2.01097
    A7        2.01160   0.00084   0.00000  -0.00549  -0.00557   2.00603
    A8        2.09879   0.00274   0.00000   0.00595   0.00569   2.10449
    A9        2.17186  -0.00357   0.00000  -0.00058  -0.00025   2.17162
   A10        2.04485   0.00050   0.00000   0.00383   0.00382   2.04867
   A11        2.24759  -0.00293   0.00000  -0.00435  -0.00417   2.24341
   A12        1.99054   0.00242   0.00000   0.00055   0.00038   1.99092
   A13        2.11612  -0.00064   0.00000  -0.00333  -0.00331   2.11281
   A14        2.04341   0.00032   0.00000   0.00188   0.00187   2.04528
   A15        2.12365   0.00032   0.00000   0.00145   0.00144   2.12509
   A16        2.11319   0.00002   0.00000   0.00157   0.00156   2.11476
   A17        2.05022  -0.00001   0.00000   0.00087   0.00087   2.05109
   A18        2.11976  -0.00001   0.00000  -0.00244  -0.00244   2.11732
   A19        2.36063   0.00076   0.00000  -0.02285  -0.02299   2.33764
   A20        2.07330  -0.00168   0.00000   0.04591   0.04620   2.11949
   A21        1.84844   0.00093   0.00000  -0.02314  -0.02328   1.82516
   A22        2.72734  -0.00009   0.00000   0.12402   0.12405   2.85139
   A23        2.03695   0.00019   0.00000  -0.03290  -0.03297   2.00398
   A24        1.51886  -0.00010   0.00000  -0.09108  -0.09105   1.42781
   A25        2.04951   0.00252   0.00000  -0.01169  -0.01206   2.03744
   A26        1.61970   0.00446   0.00000   0.00598   0.00560   1.62530
   A27        1.75788   0.00145   0.00000  -0.00275  -0.00280   1.75508
   A28        2.12493  -0.00211   0.00000   0.01179   0.01186   2.13679
    D1        0.00832   0.00002   0.00000  -0.00103  -0.00104   0.00728
    D2        3.12488  -0.00010   0.00000  -0.00178  -0.00181   3.12306
    D3       -3.12416   0.00004   0.00000   0.00033   0.00035  -3.12381
    D4       -0.00760  -0.00007   0.00000  -0.00041  -0.00043  -0.00803
    D5        0.09447   0.00006   0.00000   0.00040   0.00042   0.09489
    D6       -3.04209  -0.00004   0.00000   0.00073   0.00074  -3.04135
    D7       -3.05582   0.00004   0.00000  -0.00091  -0.00091  -3.05673
    D8        0.09080  -0.00006   0.00000  -0.00058  -0.00059   0.09021
    D9       -0.20658  -0.00031   0.00000   0.00177   0.00174  -0.20484
   D10        2.89072  -0.00007   0.00000  -0.00099  -0.00106   2.88966
   D11        2.95862  -0.00020   0.00000   0.00248   0.00248   2.96110
   D12       -0.22726   0.00004   0.00000  -0.00028  -0.00033  -0.22759
   D13        0.30085   0.00050   0.00000  -0.00056  -0.00051   0.30034
   D14       -2.81775   0.00066   0.00000  -0.00201  -0.00192  -2.81967
   D15       -2.79435   0.00006   0.00000   0.00215   0.00225  -2.79210
   D16        0.37023   0.00022   0.00000   0.00071   0.00084   0.37107
   D17        0.01783   0.00106   0.00000  -0.00021  -0.00018   0.01766
   D18        3.10882   0.00142   0.00000  -0.00289  -0.00272   3.10610
   D19        3.11086   0.00146   0.00000  -0.00335  -0.00338   3.10748
   D20       -0.08134   0.00182   0.00000  -0.00603  -0.00592  -0.08726
   D21       -0.22046  -0.00017   0.00000  -0.00087  -0.00091  -0.22138
   D22        2.92562  -0.00006   0.00000  -0.00181  -0.00183   2.92380
   D23        2.90150  -0.00037   0.00000   0.00029   0.00022   2.90173
   D24       -0.23560  -0.00027   0.00000  -0.00065  -0.00069  -0.23628
   D25        3.10781   0.00019   0.00000   0.00008   0.00012   3.10793
   D26       -0.02155   0.00091   0.00000  -0.00569  -0.00552  -0.02707
   D27       -0.01139   0.00037   0.00000  -0.00136  -0.00129  -0.01267
   D28       -3.14074   0.00109   0.00000  -0.00713  -0.00693   3.13551
   D29        0.01781  -0.00010   0.00000   0.00043   0.00044   0.01825
   D30       -3.12902   0.00001   0.00000   0.00010   0.00012  -3.12890
   D31       -3.12848  -0.00021   0.00000   0.00142   0.00139  -3.12709
   D32        0.00787  -0.00010   0.00000   0.00109   0.00107   0.00895
   D33       -0.53000   0.00181   0.00000  -0.01199  -0.01203  -0.54204
   D34        1.61773   0.00104   0.00000   0.00123   0.00116   1.61889
   D35        2.57455   0.00209   0.00000  -0.01456  -0.01454   2.56002
   D36       -1.56090   0.00132   0.00000  -0.00134  -0.00134  -1.56224
   D37       -0.77704   0.00110   0.00000   0.01230   0.01204  -0.76500
   D38        2.36948   0.00139   0.00000   0.00861   0.00901   2.37849
   D39        0.79493   0.00576   0.00000  -0.01061  -0.01086   0.78407
   D40       -1.02781   0.00157   0.00000  -0.01370  -0.01376  -1.04156
         Item               Value     Threshold  Converged?
 Maximum Force            0.066395     0.000015     NO 
 RMS     Force            0.009642     0.000010     NO 
 Maximum Displacement     0.132149     0.000060     NO 
 RMS     Displacement     0.035019     0.000040     NO 
 Predicted change in Energy= 8.444100D-03
 GradGradGradGradGradGradGradGradGradGradGradGradGradGradGradGradGradGrad

                          Input orientation:                          
 ---------------------------------------------------------------------
 Center     Atomic      Atomic             Coordinates (Angstroms)
 Number     Number       Type             X           Y           Z
 ---------------------------------------------------------------------
      1          6           0       -5.593881   -1.669913    0.021393
      2          6           0       -4.277930   -1.717893   -0.264645
      3          6           0       -3.386251   -0.543618   -0.183435
      4          6           0       -4.083086    0.765271   -0.027327
      5          6           0       -5.500153    0.736026    0.417173
      6          6           0       -6.202690   -0.414145    0.425263
      7          1           0       -1.439007   -1.526955   -0.267701
      8          1           0       -6.231683   -2.549194   -0.028554
      9          1           0       -3.791974   -2.651997   -0.553948
     10          6           0       -2.077705   -0.693794   -0.195325
     11          6           0       -3.619771    1.965952   -0.252021
     12          1           0       -5.942394    1.679285    0.730220
     13          1           0       -7.247963   -0.438456    0.740010
     14          1           0       -3.530812    3.002479   -0.352845
     15          8           0       -1.596490    2.036009   -0.876286
     16          8           0       -0.408497    1.273069    1.280305
     17         16           0       -0.632006    1.155878   -0.138723
 ---------------------------------------------------------------------
                    Distance matrix (angstroms):
                    1          2          3          4          5
     1  C    0.000000
     2  C    1.347534   0.000000
     3  C    2.486790   1.476688   0.000000
     4  C    2.866182   2.502077   1.491020   0.000000
     5  C    2.440076   2.824965   2.542991   1.485434   0.000000
     6  C    1.452829   2.424960   2.884373   2.467505   1.347783
     7  H    4.167372   2.845338   2.183074   3.507597   4.699260
     8  H    1.087392   2.136341   3.484653   3.949956   3.395068
     9  H    2.131285   1.091971   2.178797   3.469841   3.916587
    10  C    3.655580   2.427874   1.317189   2.485688   3.759347
    11  C    4.146249   3.742198   2.521344   1.306439   2.344435
    12  H    3.441079   3.911651   3.508551   2.205975   1.087801
    13  H    2.183778   3.386353   3.971981   3.471918   2.130370
    14  H    5.121284   4.779945   3.553083   2.327244   3.099684
    15  O    5.524384   4.653601   3.215240   2.918675   4.312955
    16  O    6.093785   5.128863   3.782844   3.933238   5.192146
    17  S    5.712350   4.644048   3.236689   3.474901   4.917739
                    6          7          8          9         10
     6  C    0.000000
     7  H    4.940771   0.000000
     8  H    2.182940   4.906313   0.000000
     9  H    3.431965   2.623759   2.497757   0.000000
    10  C    4.180769   1.052298   4.552566   2.627145   0.000000
    11  C    3.577017   4.117812   5.220974   4.631012   3.074968
    12  H    2.131479   5.617500   4.305748   5.003339   4.628601
    13  H    1.091903   5.995355   2.465508   4.303249   5.260382
    14  H    4.406552   4.989857   6.182309   5.664075   3.974766
    15  O    5.377208   3.617996   6.574782   5.186662   2.854313
    16  O    6.095118   3.361311   7.087476   5.497140   2.971917
    17  S    5.815116   2.804547   6.715362   4.965655   2.348305
                   11         12         13         14         15
    11  C    0.000000
    12  H    2.538022   0.000000
    13  H    4.464201   2.487858   0.000000
    14  H    1.045211   2.956281   5.181851   0.000000
    15  O    2.118556   4.647041   6.377660   2.224783   0.000000
    16  O    3.624967   5.575986   7.071035   3.925161   2.577651
    17  S    3.097708   5.406407   6.861849   3.443670   1.499619
                   16         17
    16  O    0.000000
    17  S    1.441295   0.000000
 Symmetry turned off by external request.
 Stoichiometry    C8H6O2S
 Framework group  C1[X(C8H6O2S)]
 Deg. of freedom    45
 Full point group                 C1      NOp   1
 Rotational constants (GHZ):           2.3120360           0.6021563           0.5247165
 Standard basis: VSTO-6G (5D, 7F)
    55 basis functions,   336 primitive gaussians,    56 cartesian basis functions
    28 alpha electrons       28 beta electrons
       nuclear repulsion energy       312.4800241113 Hartrees.
 Integral buffers will be    131072 words long.
 Regular integral format.
 Two-electron integral symmetry is turned off.
 Do NDO integrals.
 One-electron integrals computed using PRISM.
 NBasis=    55 RedAO= F EigKep=  0.00D+00  NBF=    55
 NBsUse=    55 1.00D-04 EigRej=  0.00D+00 NBFU=    55
 Initial guess from the checkpoint file:  "C:\Users\al6323\OneDrive - Imperial College London\Desktop\TSR20251114\TS_unfreeze_Berny_opt+freq.chk"
 B after Tr=     0.001308   -0.042925   -0.010008
         Rot=    0.999996   -0.000693   -0.000676    0.002665 Ang=  -0.32 deg.
 Keep J ints in memory in canonical form, NReq=1858957.
 Overlap will be assumed to be unity.
 Requested convergence on RMS density matrix=1.00D-08 within  32 cycles.
 Requested convergence on MAX density matrix=1.00D-06.
 Requested convergence on             energy=1.00D-06.
 No special actions if energy rises.
 SCF Done:  E(RPM6) =  0.146567617019     A.U. after   18 cycles
            NFock= 17  Conv=0.37D-08     -V/T= 1.0014
 QCSCF skips out because SCF is already converged.
 Calling FoFJK, ICntrl=      2127 FMM=F ISym2X=0 I1Cent= 0 IOpClX= 0 NMat=1 NMatS=1 NMatT=0.
 -------------------------------------------------------------------
 Center     Atomic                   Forces (Hartrees/Bohr)
 Number     Number              X              Y              Z
 -------------------------------------------------------------------
      1        6           0.000279241    0.000035891   -0.000038346
      2        6          -0.000042500   -0.000233493   -0.000032769
      3        6           0.000155544   -0.000192076    0.000162124
      4        6          -0.001038767    0.000106811    0.000720939
      5        6           0.000021872   -0.000561876   -0.000011889
      6        6          -0.000207733    0.000248667    0.000091392
      7        1          -0.000127776   -0.000518966   -0.000078743
      8        1          -0.000030224   -0.000028016   -0.000008949
      9        1          -0.000014738    0.000007038   -0.000015538
     10        6           0.033041405    0.042289811    0.001286048
     11        6           0.054559122    0.001574073   -0.017493351
     12        1           0.000049256    0.000036047    0.000017771
     13        1           0.000019974   -0.000042535   -0.000016731
     14        1          -0.000248809    0.000603637    0.000094197
     15        8          -0.055046997    0.000901821    0.015500673
     16        8          -0.000053189    0.000434026    0.000636199
     17       16          -0.031315682   -0.044660861   -0.000813027
 -------------------------------------------------------------------
 Cartesian Forces:  Max     0.055046997 RMS     0.015604039

 GradGradGradGradGradGradGradGradGradGradGradGradGradGradGradGradGradGrad
 Berny optimization.
 FormGI is forming the generalized inverse of G from B-inverse, IUseBI=4.
 Internal  Forces:  Max     0.054858239 RMS     0.008275676
 Search for a saddle point.
 Step number   2 out of a maximum of   96
 All quantities printed in internal units (Hartrees-Bohrs-Radians)
 Swapping is turned off.
 Update second derivatives using D2CorX and points    1    2
 ITU=  0  0
     Eigenvalues ---   -0.05946  -0.00097   0.00238   0.00390   0.00443
     Eigenvalues ---    0.00659   0.00872   0.01007   0.01475   0.01917
     Eigenvalues ---    0.02141   0.02308   0.02404   0.02918   0.03037
     Eigenvalues ---    0.04531   0.05104   0.06470   0.06973   0.08910
     Eigenvalues ---    0.09732   0.10371   0.10876   0.11035   0.11107
     Eigenvalues ---    0.11634   0.13950   0.14476   0.15429   0.25656
     Eigenvalues ---    0.26004   0.26716   0.27080   0.27604   0.27950
     Eigenvalues ---    0.28784   0.32109   0.36581   0.37187   0.41820
     Eigenvalues ---    0.49576   0.65956   0.70944   0.73847   0.75544
 Eigenvectors required to have negative eigenvalues:
                          R16       R14       A22       A24       R17
   1                    0.81261   0.45160   0.21541  -0.19119  -0.15233
                          A20       A21       D39       A28       D35
   1                    0.07182  -0.06052  -0.05783   0.05397  -0.04395
 RFO step:  Lambda0=4.661688989D-02 Lambda=-2.50488230D-02.
 Linear search not attempted -- option 19 set.
 Maximum step size (   0.300) exceeded in Quadratic search.
    -- Step size scaled by   0.292
 Iteration  1 RMS(Cart)=  0.03288309 RMS(Int)=  0.00310232
 Iteration  2 RMS(Cart)=  0.00338978 RMS(Int)=  0.00009451
 Iteration  3 RMS(Cart)=  0.00000534 RMS(Int)=  0.00009441
 Iteration  4 RMS(Cart)=  0.00000000 RMS(Int)=  0.00009441
 Variable       Old X    -DE/DX   Delta X   Delta X   Delta X     New X
                                 (Linear)    (Quad)   (Total)
    R1        2.54647   0.00004   0.00000   0.00080   0.00079   2.54726
    R2        2.74545   0.00050   0.00000  -0.00204  -0.00207   2.74338
    R3        2.05487   0.00004   0.00000   0.00005   0.00005   2.05492
    R4        2.79054  -0.00012   0.00000  -0.00244  -0.00242   2.78811
    R5        2.06353  -0.00001   0.00000   0.00101   0.00101   2.06454
    R6        2.81762  -0.00174   0.00000   0.00622   0.00638   2.82400
    R7        2.48913  -0.00105   0.00000   0.00166   0.00182   2.49095
    R8        2.80706  -0.00015   0.00000   0.00082   0.00083   2.80789
    R9        2.46881   0.00022   0.00000  -0.01062  -0.01062   2.45820
   R10        2.54694   0.00013   0.00000   0.00061   0.00059   2.54753
   R11        2.05565   0.00002   0.00000  -0.00063  -0.00063   2.05502
   R12        2.06340  -0.00002   0.00000   0.00089   0.00089   2.06429
   R13        1.98856   0.00034   0.00000   0.00475   0.00475   1.99330
   R14        4.43765  -0.05258   0.00000  -0.10452  -0.10447   4.33319
   R15        1.97516   0.00057   0.00000  -0.00263  -0.00263   1.97253
   R16        4.00349  -0.05486   0.00000   0.22741   0.22726   4.23075
   R17        2.83387   0.00375   0.00000  -0.02973  -0.02988   2.80399
   R18        2.72365   0.00065   0.00000   0.00280   0.00280   2.72645
    A1        2.09326   0.00007   0.00000  -0.00054  -0.00053   2.09273
    A2        2.13442  -0.00003   0.00000  -0.00043  -0.00044   2.13399
    A3        2.05546  -0.00004   0.00000   0.00095   0.00095   2.05641
    A4        2.15280  -0.00067   0.00000   0.00417   0.00422   2.15702
    A5        2.11916   0.00032   0.00000  -0.00193  -0.00195   2.11721
    A6        2.01097   0.00035   0.00000  -0.00226  -0.00228   2.00868
    A7        2.00603   0.00069   0.00000  -0.00546  -0.00555   2.00049
    A8        2.10449   0.00189   0.00000   0.00406   0.00382   2.10830
    A9        2.17162  -0.00257   0.00000   0.00125   0.00157   2.17319
   A10        2.04867   0.00025   0.00000   0.00322   0.00322   2.05189
   A11        2.24341  -0.00284   0.00000  -0.00723  -0.00711   2.23630
   A12        1.99092   0.00259   0.00000   0.00404   0.00392   1.99484
   A13        2.11281  -0.00037   0.00000  -0.00240  -0.00238   2.11042
   A14        2.04528   0.00013   0.00000   0.00101   0.00101   2.04628
   A15        2.12509   0.00024   0.00000   0.00139   0.00138   2.12647
   A16        2.11476  -0.00006   0.00000   0.00101   0.00100   2.11576
   A17        2.05109  -0.00002   0.00000   0.00084   0.00085   2.05194
   A18        2.11732   0.00007   0.00000  -0.00185  -0.00185   2.11548
   A19        2.33764   0.00003   0.00000  -0.02463  -0.02478   2.31286
   A20        2.11949  -0.00099   0.00000   0.04682   0.04712   2.16661
   A21        1.82516   0.00098   0.00000  -0.02223  -0.02238   1.80278
   A22        2.85139  -0.00032   0.00000   0.11654   0.11659   2.96799
   A23        2.00398   0.00000   0.00000  -0.02800  -0.02811   1.97587
   A24        1.42781   0.00032   0.00000  -0.08853  -0.08848   1.33933
   A25        2.03744   0.00132   0.00000  -0.02075  -0.02114   2.01631
   A26        1.62530   0.00424   0.00000   0.01051   0.01032   1.63562
   A27        1.75508   0.00118   0.00000  -0.00318  -0.00326   1.75182
   A28        2.13679  -0.00211   0.00000   0.00613   0.00615   2.14294
    D1        0.00728   0.00000   0.00000  -0.00104  -0.00104   0.00624
    D2        3.12306  -0.00012   0.00000  -0.00177  -0.00178   3.12129
    D3       -3.12381   0.00004   0.00000   0.00029   0.00030  -3.12351
    D4       -0.00803  -0.00007   0.00000  -0.00043  -0.00043  -0.00846
    D5        0.09489   0.00008   0.00000   0.00049   0.00050   0.09540
    D6       -3.04135   0.00000   0.00000   0.00070   0.00070  -3.04065
    D7       -3.05673   0.00004   0.00000  -0.00080  -0.00079  -3.05752
    D8        0.09021  -0.00005   0.00000  -0.00059  -0.00059   0.08962
    D9       -0.20484  -0.00028   0.00000   0.00155   0.00153  -0.20331
   D10        2.88966  -0.00016   0.00000  -0.00179  -0.00181   2.88785
   D11        2.96110  -0.00018   0.00000   0.00224   0.00223   2.96333
   D12       -0.22759  -0.00005   0.00000  -0.00110  -0.00111  -0.22870
   D13        0.30034   0.00046   0.00000  -0.00028  -0.00026   0.30008
   D14       -2.81967   0.00056   0.00000  -0.00206  -0.00200  -2.82167
   D15       -2.79210   0.00019   0.00000   0.00313   0.00317  -2.78893
   D16        0.37107   0.00028   0.00000   0.00135   0.00142   0.37250
   D17        0.01766   0.00081   0.00000  -0.00183  -0.00180   0.01585
   D18        3.10610   0.00120   0.00000  -0.00328  -0.00319   3.10291
   D19        3.10748   0.00106   0.00000  -0.00568  -0.00568   3.10180
   D20       -0.08726   0.00145   0.00000  -0.00713  -0.00707  -0.09433
   D21       -0.22138  -0.00019   0.00000  -0.00114  -0.00116  -0.22253
   D22        2.92380  -0.00008   0.00000  -0.00180  -0.00180   2.92199
   D23        2.90173  -0.00034   0.00000   0.00025   0.00021   2.90194
   D24       -0.23628  -0.00022   0.00000  -0.00041  -0.00043  -0.23672
   D25        3.10793   0.00021   0.00000  -0.00072  -0.00073   3.10720
   D26       -0.02707   0.00103   0.00000  -0.00306  -0.00302  -0.03009
   D27       -0.01267   0.00032   0.00000  -0.00245  -0.00243  -0.01510
   D28        3.13551   0.00115   0.00000  -0.00479  -0.00472   3.13079
   D29        0.01825  -0.00005   0.00000   0.00057   0.00056   0.01881
   D30       -3.12890   0.00004   0.00000   0.00036   0.00037  -3.12853
   D31       -3.12709  -0.00017   0.00000   0.00126   0.00124  -3.12585
   D32        0.00895  -0.00008   0.00000   0.00105   0.00105   0.00999
   D33       -0.54204   0.00135   0.00000  -0.01292  -0.01293  -0.55496
   D34        1.61889   0.00050   0.00000  -0.00444  -0.00448   1.61441
   D35        2.56002   0.00163   0.00000  -0.01471  -0.01468   2.54534
   D36       -1.56224   0.00078   0.00000  -0.00623  -0.00623  -1.56847
   D37       -0.76500   0.00148   0.00000   0.01430   0.01414  -0.75086
   D38        2.37849   0.00172   0.00000   0.01290   0.01300   2.39149
   D39        0.78407   0.00465   0.00000  -0.01380  -0.01400   0.77007
   D40       -1.04156   0.00086   0.00000  -0.01838  -0.01846  -1.06002
         Item               Value     Threshold  Converged?
 Maximum Force            0.054858     0.000015     NO 
 RMS     Force            0.008276     0.000010     NO 
 Maximum Displacement     0.136946     0.000060     NO 
 RMS     Displacement     0.034988     0.000040     NO 
 Predicted change in Energy= 6.326263D-03
 GradGradGradGradGradGradGradGradGradGradGradGradGradGradGradGradGradGrad

                          Input orientation:                          
 ---------------------------------------------------------------------
 Center     Atomic      Atomic             Coordinates (Angstroms)
 Number     Number       Type             X           Y           Z
 ---------------------------------------------------------------------
      1          6           0       -5.589091   -1.673804    0.023279
      2          6           0       -4.272050   -1.700705   -0.262473
      3          6           0       -3.394916   -0.517111   -0.181447
      4          6           0       -4.115746    0.782212   -0.022136
      5          6           0       -5.532269    0.732505    0.423743
      6          6           0       -6.216330   -0.429127    0.429335
      7          1           0       -1.450839   -1.488384   -0.262998
      8          1           0       -6.212524   -2.563300   -0.027796
      9          1           0       -3.772805   -2.628326   -0.552032
     10          6           0       -2.083236   -0.647177   -0.191781
     11          6           0       -3.666658    1.982499   -0.245224
     12          1           0       -5.987874    1.668067    0.739554
     13          1           0       -7.261434   -0.469031    0.744693
     14          1           0       -3.472997    2.999468   -0.378739
     15          8           0       -1.524021    2.016532   -0.893496
     16          8           0       -0.394400    1.230079    1.276052
     17         16           0       -0.615104    1.113607   -0.144978
 ---------------------------------------------------------------------
                    Distance matrix (angstroms):
                    1          2          3          4          5
     1  C    0.000000
     2  C    1.347952   0.000000
     3  C    2.488827   1.475406   0.000000
     4  C    2.864407   2.499413   1.494395   0.000000
     5  C    2.440067   2.824810   2.548739   1.485872   0.000000
     6  C    1.451734   2.423992   2.888110   2.466500   1.348095
     7  H    4.152284   2.829189   2.174731   3.509323   4.697023
     8  H    1.087418   2.136488   3.485600   3.948285   3.395433
     9  H    2.130960   1.092507   2.176548   3.468453   3.917019
    10  C    3.659404   2.430191   1.318154   2.490588   3.765398
    11  C    4.139613   3.732664   2.515146   1.300821   2.343183
    12  H    3.440957   3.911104   3.513784   2.206757   1.087469
    13  H    2.183723   3.386417   3.976180   3.471165   2.129955
    14  H    5.145770   4.769028   3.522975   2.335919   3.166023
    15  O    5.566315   4.665587   3.229026   2.999975   4.410203
    16  O    6.081677   5.098306   3.765644   3.966648   5.231798
    17  S    5.704254   4.615995   3.223030   3.518438   4.964594
                    6          7          8          9         10
     6  C    0.000000
     7  H    4.930645   0.000000
     8  H    2.182585   4.887167   0.000000
     9  H    3.430798   2.602793   2.496253   0.000000
    10  C    4.185188   1.054811   4.555155   2.628570   0.000000
    11  C    3.573765   4.117911   5.214690   4.622240   3.070061
    12  H    2.132288   5.617204   4.306247   5.003371   4.633998
    13  H    1.092375   5.984775   2.466357   4.302857   5.265211
    14  H    4.464765   4.923752   6.210681   5.638438   3.906969
    15  O    5.454255   3.561927   6.611078   5.171879   2.810778
    16  O    6.112673   3.297693   7.066846   5.444521   2.920752
    17  S    5.838116   2.735459   6.698095   4.913128   2.293024
                   11         12         13         14         15
    11  C    0.000000
    12  H    2.541004   0.000000
    13  H    4.462325   2.487804   0.000000
    14  H    1.043819   3.057420   5.257836   0.000000
    15  O    2.238818   4.765948   6.463713   2.242687   0.000000
    16  O    3.686202   5.636189   7.094045   3.917503   2.569337
    17  S    3.174429   5.473251   6.889844   3.432007   1.483808
                   16         17
    16  O    0.000000
    17  S    1.442776   0.000000
 Symmetry turned off by external request.
 Stoichiometry    C8H6O2S
 Framework group  C1[X(C8H6O2S)]
 Deg. of freedom    45
 Full point group                 C1      NOp   1
 Rotational constants (GHZ):           2.3146703           0.5975004           0.5216990
 Standard basis: VSTO-6G (5D, 7F)
    55 basis functions,   336 primitive gaussians,    56 cartesian basis functions
    28 alpha electrons       28 beta electrons
       nuclear repulsion energy       312.1623270115 Hartrees.
 Integral buffers will be    131072 words long.
 Regular integral format.
 Two-electron integral symmetry is turned off.
 Do NDO integrals.
 One-electron integrals computed using PRISM.
 NBasis=    55 RedAO= F EigKep=  0.00D+00  NBF=    55
 NBsUse=    55 1.00D-04 EigRej=  0.00D+00 NBFU=    55
 Initial guess from the checkpoint file:  "C:\Users\al6323\OneDrive - Imperial College London\Desktop\TSR20251114\TS_unfreeze_Berny_opt+freq.chk"
 B after Tr=     0.000531   -0.044824   -0.009229
         Rot=    0.999996   -0.000539   -0.000572    0.002811 Ang=  -0.33 deg.
 Keep J ints in memory in canonical form, NReq=1858957.
 Overlap will be assumed to be unity.
 Requested convergence on RMS density matrix=1.00D-08 within  32 cycles.
 Requested convergence on MAX density matrix=1.00D-06.
 Requested convergence on             energy=1.00D-06.
 No special actions if energy rises.
 SCF Done:  E(RPM6) =  0.153093658835     A.U. after   18 cycles
            NFock= 17  Conv=0.28D-08     -V/T= 1.0014
 QCSCF skips out because SCF is already converged.
 Calling FoFJK, ICntrl=      2127 FMM=F ISym2X=0 I1Cent= 0 IOpClX= 0 NMat=1 NMatS=1 NMatT=0.
 -------------------------------------------------------------------
 Center     Atomic                   Forces (Hartrees/Bohr)
 Number     Number              X              Y              Z
 -------------------------------------------------------------------
      1        6           0.000565214    0.000028438   -0.000074611
      2        6          -0.000147259   -0.000424053   -0.000072674
      3        6           0.000487389   -0.000314050    0.000338685
      4        6          -0.002611423   -0.000023253    0.001610024
      5        6           0.000067061   -0.001187030   -0.000023934
      6        6          -0.000442777    0.000511627    0.000194025
      7        1          -0.000186870   -0.000988078   -0.000190945
      8        1          -0.000051781   -0.000055691   -0.000021187
      9        1          -0.000026456    0.000016393   -0.000046648
     10        6           0.030233217    0.036420434    0.000942766
     11        6           0.046295105   -0.000020577   -0.015088492
     12        1           0.000093169    0.000062911    0.000030929
     13        1           0.000039819   -0.000080749   -0.000031749
     14        1          -0.000397263    0.001483433    0.000139573
     15        8          -0.046525106    0.005057761    0.010626540
     16        8          -0.000085733    0.000812651    0.001269062
     17       16          -0.027306307   -0.041300166    0.000398634
 -------------------------------------------------------------------
 Cartesian Forces:  Max     0.046525106 RMS     0.013565319

 GradGradGradGradGradGradGradGradGradGradGradGradGradGradGradGradGradGrad
 Berny optimization.
 FormGI is forming the generalized inverse of G from B-inverse, IUseBI=4.
 Internal  Forces:  Max     0.045937390 RMS     0.007040018
 Search for a saddle point.
 Step number   3 out of a maximum of   96
 All quantities printed in internal units (Hartrees-Bohrs-Radians)
 Swapping is turned off.
 Update second derivatives using D2CorX and points    2    3
 ITU=  0  0  0
     Eigenvalues ---   -0.05809   0.00108   0.00290   0.00390   0.00462
     Eigenvalues ---    0.00659   0.00869   0.01007   0.01475   0.01916
     Eigenvalues ---    0.02140   0.02308   0.02401   0.02918   0.03036
     Eigenvalues ---    0.04583   0.05106   0.06479   0.06982   0.09001
     Eigenvalues ---    0.09728   0.10371   0.10876   0.11036   0.11108
     Eigenvalues ---    0.11643   0.13952   0.14478   0.15431   0.25660
     Eigenvalues ---    0.26005   0.26727   0.27087   0.27623   0.27950
     Eigenvalues ---    0.28845   0.32270   0.36582   0.37188   0.41820
     Eigenvalues ---    0.49591   0.65956   0.70950   0.73897   0.75553
 Eigenvectors required to have negative eigenvalues:
                          R16       R14       A22       A24       R17
   1                   -0.79918  -0.48452  -0.20336   0.19316   0.13870
                          A20       A21       D39       A28       D35
   1                   -0.06751   0.06099   0.05817  -0.05392   0.04589
 RFO step:  Lambda0=3.807261613D-02 Lambda=-1.96431382D-02.
 Linear search not attempted -- option 19 set.
 Maximum step size (   0.300) exceeded in Quadratic search.
    -- Step size scaled by   0.276
 Iteration  1 RMS(Cart)=  0.03272618 RMS(Int)=  0.00335420
 Iteration  2 RMS(Cart)=  0.00338929 RMS(Int)=  0.00008720
 Iteration  3 RMS(Cart)=  0.00001337 RMS(Int)=  0.00008200
 Iteration  4 RMS(Cart)=  0.00000001 RMS(Int)=  0.00008200
 Variable       Old X    -DE/DX   Delta X   Delta X   Delta X     New X
                                 (Linear)    (Quad)   (Total)
    R1        2.54726  -0.00013   0.00000   0.00033   0.00033   2.54759
    R2        2.74338   0.00057   0.00000  -0.00122  -0.00124   2.74214
    R3        2.05492   0.00008   0.00000   0.00031   0.00031   2.05524
    R4        2.78811   0.00002   0.00000  -0.00174  -0.00172   2.78639
    R5        2.06454  -0.00001   0.00000   0.00090   0.00090   2.06544
    R6        2.82400  -0.00088   0.00000   0.00767   0.00774   2.83174
    R7        2.49095  -0.00072   0.00000   0.00180   0.00189   2.49284
    R8        2.80789  -0.00009   0.00000  -0.00071  -0.00070   2.80719
    R9        2.45820   0.00165   0.00000  -0.00844  -0.00848   2.44972
   R10        2.54753   0.00001   0.00000   0.00030   0.00028   2.54781
   R11        2.05502   0.00002   0.00000  -0.00032  -0.00032   2.05470
   R12        2.06429  -0.00004   0.00000   0.00063   0.00063   2.06492
   R13        1.99330   0.00069   0.00000   0.00650   0.00650   1.99980
   R14        4.33319  -0.04594   0.00000  -0.11628  -0.11623   4.21696
   R15        1.97253   0.00135   0.00000   0.00170   0.00170   1.97423
   R16        4.23075  -0.04498   0.00000   0.22823   0.22813   4.45888
   R17        2.80399   0.00660   0.00000  -0.01334  -0.01337   2.79062
   R18        2.72645   0.00130   0.00000   0.00569   0.00569   2.73214
    A1        2.09273   0.00016   0.00000   0.00001   0.00002   2.09275
    A2        2.13399  -0.00008   0.00000  -0.00057  -0.00057   2.13342
    A3        2.05641  -0.00009   0.00000   0.00054   0.00054   2.05695
    A4        2.15702  -0.00056   0.00000   0.00351   0.00356   2.16058
    A5        2.11721   0.00027   0.00000  -0.00157  -0.00159   2.11561
    A6        2.00868   0.00030   0.00000  -0.00196  -0.00198   2.00670
    A7        2.00049   0.00057   0.00000  -0.00543  -0.00550   1.99499
    A8        2.10830   0.00116   0.00000   0.00254   0.00237   2.11068
    A9        2.17319  -0.00173   0.00000   0.00272   0.00295   2.17614
   A10        2.05189  -0.00003   0.00000   0.00231   0.00233   2.05422
   A11        2.23630  -0.00291   0.00000  -0.01330  -0.01328   2.22303
   A12        1.99484   0.00293   0.00000   0.01101   0.01097   2.00581
   A13        2.11042  -0.00009   0.00000  -0.00115  -0.00114   2.10928
   A14        2.04628  -0.00006   0.00000  -0.00036  -0.00036   2.04592
   A15        2.12647   0.00015   0.00000   0.00150   0.00150   2.12797
   A16        2.11576  -0.00014   0.00000   0.00010   0.00009   2.11585
   A17        2.05194  -0.00002   0.00000   0.00079   0.00080   2.05273
   A18        2.11548   0.00016   0.00000  -0.00089  -0.00088   2.11459
   A19        2.31286  -0.00051   0.00000  -0.02732  -0.02745   2.28541
   A20        2.16661  -0.00052   0.00000   0.04605   0.04631   2.21292
   A21        1.80278   0.00105   0.00000  -0.01868  -0.01881   1.78397
   A22        2.96799  -0.00089   0.00000   0.10355   0.10361   3.07159
   A23        1.97587   0.00036   0.00000  -0.01816  -0.01828   1.95759
   A24        1.33933   0.00053   0.00000  -0.08539  -0.08533   1.25399
   A25        2.01631  -0.00019   0.00000  -0.04002  -0.04024   1.97607
   A26        1.63562   0.00420   0.00000   0.01971   0.01987   1.65549
   A27        1.75182   0.00086   0.00000  -0.00388  -0.00395   1.74787
   A28        2.14294  -0.00205   0.00000  -0.00483  -0.00490   2.13804
    D1        0.00624  -0.00002   0.00000  -0.00070  -0.00068   0.00556
    D2        3.12129  -0.00014   0.00000  -0.00145  -0.00143   3.11986
    D3       -3.12351   0.00005   0.00000   0.00043   0.00044  -3.12307
    D4       -0.00846  -0.00007   0.00000  -0.00032  -0.00031  -0.00877
    D5        0.09540   0.00011   0.00000   0.00130   0.00129   0.09669
    D6       -3.04065   0.00004   0.00000   0.00120   0.00119  -3.03946
    D7       -3.05752   0.00005   0.00000   0.00021   0.00022  -3.05730
    D8        0.08962  -0.00003   0.00000   0.00011   0.00011   0.08973
    D9       -0.20331  -0.00028   0.00000  -0.00044  -0.00044  -0.20375
   D10        2.88785  -0.00026   0.00000  -0.00394  -0.00390   2.88395
   D11        2.96333  -0.00017   0.00000   0.00027   0.00027   2.96359
   D12       -0.22870  -0.00015   0.00000  -0.00323  -0.00320  -0.23190
   D13        0.30008   0.00043   0.00000   0.00216   0.00215   0.30223
   D14       -2.82167   0.00049   0.00000   0.00072   0.00075  -2.82092
   D15       -2.78893   0.00032   0.00000   0.00583   0.00579  -2.78314
   D16        0.37250   0.00037   0.00000   0.00440   0.00440   0.37690
   D17        0.01585   0.00057   0.00000  -0.00362  -0.00360   0.01225
   D18        3.10291   0.00101   0.00000  -0.00259  -0.00258   3.10033
   D19        3.10180   0.00067   0.00000  -0.00773  -0.00769   3.09410
   D20       -0.09433   0.00111   0.00000  -0.00670  -0.00667  -0.10100
   D21       -0.22253  -0.00022   0.00000  -0.00267  -0.00266  -0.22520
   D22        2.92199  -0.00009   0.00000  -0.00303  -0.00302   2.91897
   D23        2.90194  -0.00033   0.00000  -0.00170  -0.00171   2.90023
   D24       -0.23672  -0.00020   0.00000  -0.00205  -0.00207  -0.23878
   D25        3.10720   0.00015   0.00000  -0.00560  -0.00564   3.10156
   D26       -0.03009   0.00122   0.00000  -0.00122  -0.00140  -0.03149
   D27       -0.01510   0.00023   0.00000  -0.00693  -0.00692  -0.02203
   D28        3.13079   0.00130   0.00000  -0.00255  -0.00269   3.12811
   D29        0.01881   0.00000   0.00000   0.00052   0.00051   0.01932
   D30       -3.12853   0.00008   0.00000   0.00063   0.00062  -3.12791
   D31       -3.12585  -0.00014   0.00000   0.00089   0.00088  -3.12497
   D32        0.00999  -0.00006   0.00000   0.00100   0.00100   0.01099
   D33       -0.55496   0.00080   0.00000  -0.02214  -0.02211  -0.57707
   D34        1.61441  -0.00004   0.00000  -0.02270  -0.02268   1.59173
   D35        2.54534   0.00111   0.00000  -0.02221  -0.02217   2.52317
   D36       -1.56847   0.00027   0.00000  -0.02277  -0.02273  -1.59121
   D37       -0.75086   0.00174   0.00000   0.01463   0.01470  -0.73616
   D38        2.39149   0.00193   0.00000   0.01497   0.01457   2.40606
   D39        0.77007   0.00365   0.00000  -0.01262  -0.01273   0.75734
   D40       -1.06002   0.00023   0.00000  -0.02024  -0.02029  -1.08031
         Item               Value     Threshold  Converged?
 Maximum Force            0.045937     0.000015     NO 
 RMS     Force            0.007040     0.000010     NO 
 Maximum Displacement     0.147724     0.000060     NO 
 RMS     Displacement     0.034718     0.000040     NO 
 Predicted change in Energy= 4.346092D-03
 GradGradGradGradGradGradGradGradGradGradGradGradGradGradGradGradGradGrad

                          Input orientation:                          
 ---------------------------------------------------------------------
 Center     Atomic      Atomic             Coordinates (Angstroms)
 Number     Number       Type             X           Y           Z
 ---------------------------------------------------------------------
      1          6           0       -5.582356   -1.676240    0.024795
      2          6           0       -4.265254   -1.682340   -0.262705
      3          6           0       -3.402359   -0.489541   -0.180378
      4          6           0       -4.147166    0.800368   -0.016444
      5          6           0       -5.561137    0.728896    0.433319
      6          6           0       -6.227306   -0.443267    0.436432
      7          1           0       -1.465093   -1.454216   -0.258594
      8          1           0       -6.191896   -2.575396   -0.028298
      9          1           0       -3.753588   -2.602776   -0.555299
     10          6           0       -2.087998   -0.601545   -0.189071
     11          6           0       -3.705368    1.998130   -0.241537
     12          1           0       -6.028628    1.656759    0.753856
     13          1           0       -7.271275   -0.499389    0.754223
     14          1           0       -3.415780    2.988424   -0.405533
     15          8           0       -1.445849    2.000290   -0.921235
     16          8           0       -0.406846    1.194985    1.278162
     17         16           0       -0.604393    1.064864   -0.148139
 ---------------------------------------------------------------------
                    Distance matrix (angstroms):
                    1          2          3          4          5
     1  C    0.000000
     2  C    1.348129   0.000000
     3  C    2.490530   1.474496   0.000000
     4  C    2.862701   2.497685   1.498492   0.000000
     5  C    2.439676   2.824504   2.553730   1.485499   0.000000
     6  C    1.451078   2.423580   2.891872   2.465503   1.348242
     7  H    4.132972   2.809441   2.165575   3.512165   4.692792
     8  H    1.087584   2.136456   3.486465   3.946751   3.395481
     9  H    2.130580   1.092985   2.174785   3.467947   3.917223
    10  C    3.662137   2.431869   1.319153   2.497065   3.770960
    11  C    4.134611   3.722872   2.506802   1.296336   2.347396
    12  H    3.440868   3.910558   3.518051   2.206052   1.087300
    13  H    2.183916   3.386691   3.980212   3.470353   2.129844
    14  H    5.161233   4.749531   3.485271   2.339638   3.226717
    15  O    5.614494   4.684493   3.252085   3.091209   4.515181
    16  O    6.049857   5.053770   3.733372   3.977653   5.243826
    17  S    5.685391   4.578445   3.200910   3.555073   5.002027
                    6          7          8          9         10
     6  C    0.000000
     7  H    4.917697   0.000000
     8  H    2.182476   4.863409   0.000000
     9  H    3.430202   2.577680   2.494760   0.000000
    10  C    4.189293   1.058249   4.556744   2.629304   0.000000
    11  C    3.574945   4.115557   5.210127   4.611844   3.062180
    12  H    2.133152   5.615075   4.306919   5.003332   4.638708
    13  H    1.092709   5.970698   2.467225   4.302697   5.269402
    14  H    4.515539   4.854258   6.229384   5.603398   3.833763
    15  O    5.538642   3.517538   6.652759   5.162150   2.778123
    16  O    6.104926   3.240335   7.027760   5.383796   2.864711
    17  S    5.850925   2.664352   6.669786   4.851267   2.231519
                   11         12         13         14         15
    11  C    0.000000
    12  H    2.550467   0.000000
    13  H    4.465964   2.488603   0.000000
    14  H    1.044720   3.153489   5.326793   0.000000
    15  O    2.359538   4.891402   6.556763   2.263401   0.000000
    16  O    3.719512   5.665030   7.089838   3.886507   2.562302
    17  S    3.239714   5.530484   6.907131   3.416172   1.476735
                   16         17
    16  O    0.000000
    17  S    1.445785   0.000000
 Symmetry turned off by external request.
 Stoichiometry    C8H6O2S
 Framework group  C1[X(C8H6O2S)]
 Deg. of freedom    45
 Full point group                 C1      NOp   1
 Rotational constants (GHZ):           2.3122753           0.5945734           0.5204139
 Standard basis: VSTO-6G (5D, 7F)
    55 basis functions,   336 primitive gaussians,    56 cartesian basis functions
    28 alpha electrons       28 beta electrons
       nuclear repulsion energy       311.9368466436 Hartrees.
 Integral buffers will be    131072 words long.
 Regular integral format.
 Two-electron integral symmetry is turned off.
 Do NDO integrals.
 One-electron integrals computed using PRISM.
 NBasis=    55 RedAO= F EigKep=  0.00D+00  NBF=    55
 NBsUse=    55 1.00D-04 EigRej=  0.00D+00 NBFU=    55
 Initial guess from the checkpoint file:  "C:\Users\al6323\OneDrive - Imperial College London\Desktop\TSR20251114\TS_unfreeze_Berny_opt+freq.chk"
 B after Tr=    -0.002320   -0.044223   -0.000924
         Rot=    0.999996    0.000158    0.000036    0.002758 Ang=   0.32 deg.
 Keep J ints in memory in canonical form, NReq=1858957.
 Overlap will be assumed to be unity.
 Requested convergence on RMS density matrix=1.00D-08 within  32 cycles.
 Requested convergence on MAX density matrix=1.00D-06.
 Requested convergence on             energy=1.00D-06.
 No special actions if energy rises.
 SCF Done:  E(RPM6) =  0.157679092639     A.U. after   19 cycles
            NFock= 18  Conv=0.94D-08     -V/T= 1.0015
 QCSCF skips out because SCF is already converged.
 Calling FoFJK, ICntrl=      2127 FMM=F ISym2X=0 I1Cent= 0 IOpClX= 0 NMat=1 NMatS=1 NMatT=0.
 -------------------------------------------------------------------
 Center     Atomic                   Forces (Hartrees/Bohr)
 Number     Number              X              Y              Z
 -------------------------------------------------------------------
      1        6           0.000805037   -0.000024517   -0.000103821
      2        6          -0.000267438   -0.000599319   -0.000110233
      3        6           0.000592745   -0.000162814    0.000550572
      4        6          -0.004028955   -0.000237127    0.002366938
      5        6           0.000153597   -0.001624493   -0.000036735
      6        6          -0.000617069    0.000750462    0.000276959
      7        1          -0.000305726   -0.001408032   -0.000310080
      8        1          -0.000063068   -0.000066371   -0.000034022
      9        1          -0.000038843    0.000025990   -0.000086943
     10        6           0.027333260    0.030570968    0.000560177
     11        6           0.040415984   -0.000841444   -0.013473388
     12        1           0.000125163    0.000083501    0.000036420
     13        1           0.000057112   -0.000109227   -0.000040003
     14        1          -0.000704634    0.002100145    0.000256530
     15        8          -0.038806130    0.006678450    0.007619332
     16        8          -0.000195772    0.001099137    0.001663009
     17       16          -0.024455263   -0.036235308    0.000865289
 -------------------------------------------------------------------
 Cartesian Forces:  Max     0.040415984 RMS     0.011762895

 GradGradGradGradGradGradGradGradGradGradGradGradGradGradGradGradGradGrad
 Berny optimization.
 FormGI is forming the generalized inverse of G from B-inverse, IUseBI=4.
 Internal  Forces:  Max     0.039320280 RMS     0.005995925
 Search for a saddle point.
 Step number   4 out of a maximum of   96
 All quantities printed in internal units (Hartrees-Bohrs-Radians)
 Swapping is turned off.
 Update second derivatives using D2CorX and points    3    4
 ITU=  0  0  0  0
     Eigenvalues ---   -0.05610   0.00165   0.00365   0.00407   0.00606
     Eigenvalues ---    0.00684   0.00872   0.01007   0.01476   0.01916
     Eigenvalues ---    0.02138   0.02307   0.02396   0.02917   0.03036
     Eigenvalues ---    0.04601   0.05121   0.06495   0.07006   0.09103
     Eigenvalues ---    0.09721   0.10372   0.10876   0.11038   0.11108
     Eigenvalues ---    0.11663   0.13954   0.14480   0.15433   0.25659
     Eigenvalues ---    0.26005   0.26737   0.27089   0.27638   0.27950
     Eigenvalues ---    0.28854   0.32299   0.36582   0.37187   0.41820
     Eigenvalues ---    0.49608   0.65957   0.70963   0.73966   0.75576
 Eigenvectors required to have negative eigenvalues:
                          R16       R14       A24       A22       R17
   1                    0.78028   0.52403  -0.18901   0.18753  -0.13377
                          A20       A21       D39       A28       A25
   1                    0.06044  -0.05706  -0.05642   0.05616  -0.04898
 RFO step:  Lambda0=3.125842511D-02 Lambda=-1.36247004D-02.
[...]
 1|1|UNPC-SKCH-134-020|Freq|RPM6|ZDO|C8H6O2S1|AL6323|14-Nov-2025|0||#N 
 Geom=AllCheck Guess=TCheck SCRF=Check GenChk RPM6/ZDO Freq||Title Card
  Required||0,1|C,-5.5694605695,-1.6202660548,-0.0250559977|C,-4.170457
 7963,-1.7071310255,0.1098085614|C,-3.4641516855,-0.5164505093,0.175352
 9462|C,-4.1452227185,0.7335676148,0.14522191|C,-5.5132310702,0.8226599
 3,0.0004231762|C,-6.2270887564,-0.3895871097,-0.0922639772|H,-1.462825
 441,-0.4723186342,1.0885087137|H,-6.1513093677,-2.5414520452,-0.081306
 8727|H,-3.6703344285,-2.6690862509,0.1629801379|C,-2.0721793359,-0.119
 847836,0.2770278117|C,-3.0300347318,1.6957821679,0.3924954404|H,-6.030
 1187086,1.7785942179,-0.037044097|H,-7.3087612862,-0.3613344908,-0.207
 6247637|H,-3.0069516633,2.2189749242,1.3552949726|O,-2.2747181557,2.18
 19440766,-0.5468719958|O,-0.0295911013,0.8529490245,-1.0846618146|S,-1
 .4358571034,0.5210062607,-1.1587298614||Version=EM64W-G16RevC.01|HF=0.
 0418346|RMSD=1.938e-009|RMSF=1.811e-006|ZeroPoint=0.1124941|Thermal=0.
 1214007|ETot=0.1632352|HTot=0.1641794|GTot=0.1199464|Dipole=-1.3546224
 ,-0.616329,0.0278309|DipoleDeriv=0.1864653,-0.2236123,-0.0080322,-0.15
 12549,0.0635734,-0.0011187,0.0174763,-0.0253627,0.0115389,-0.6616855,0
 .0861596,0.02875,-0.2203047,-0.3898774,0.0183898,0.015916,0.0235104,-0
 .3452557,0.8574565,0.5606696,-0.1378991,0.0989213,0.2360804,-0.0138173
 ,0.0972342,0.1309184,0.2715014,-0.818328,-0.2233109,0.0611619,0.013200
 7,-0.2742858,0.0081207,-0.1117607,-0.0464785,-0.4043931,0.1850983,0.33
 70914,-0.0042679,0.0375916,0.0805811,-0.0001461,-0.0304392,0.0188632,0
 .0469054,-0.4597059,-0.037142,0.0141239,0.0415492,-0.5699594,-0.003292
 2,-0.0125279,-0.01137,-0.3093104,0.2697674,-0.0863541,0.098452,-0.0924
 435,0.2337581,0.0151265,0.0677941,-0.1094319,0.3328517,0.1463432,0.103
 6818,-0.0040388,0.1221249,0.2388921,0.0023124,-0.0029157,0.0104581,0.1
 315224,0.1231212,-0.108517,0.0028428,-0.0503484,0.3189566,-0.0235431,-
 0.0003888,-0.0110709,0.1837086,-1.8365457,0.0594522,-0.0130237,0.07726
 96,-1.5066107,0.0683838,0.4270028,-0.2304402,-1.1068504,1.5563421,0.02
 98531,-0.3629979,0.1463039,1.6616777,-0.2917908,-0.2819825,-0.6023404,
 0.8982187,0.1447576,-0.0975028,-0.0045104,-0.1257143,0.2264334,-0.0009
 54,0.0070097,-0.0029109,0.1299632,0.3527936,0.0111678,0.0038792,-0.010
 0111,0.0892041,0.0000526,0.0227128,0.0046,0.1710324,-0.0081119,-0.0115
 179,0.0106699,-0.1048471,0.0810215,0.1132947,0.0166459,0.1385336,0.163
 6744,-1.1530381,-0.2048685,0.4542455,0.2483241,-1.1451316,-0.0795719,0
 .3816743,0.4345922,-1.0182886,-1.2066895,-0.0312994,0.4009799,-0.16508
 66,-0.4133479,0.1043515,-0.2162765,-0.0475872,-0.6395705,2.3220055,-0.
 1640168,-0.5402906,0.1348289,1.0689918,0.0840753,-0.3973698,0.3254254,
 1.482706|Polar=139.8317731,11.9302135,108.46315,-13.0440789,-5.0172645
 ,41.5789022|HyperPolar=-440.3383671,-28.0163834,-58.2516151,134.455602
 ,-74.7786667,-28.2727302,-50.4292818,48.1921657,31.7641803,8.9172709|P
 G=C01 [X(C8H6O2S1)]|NImag=1||0.62151071,-0.02678932,0.62447174,0.04735
 738,-0.00332287,0.15167049,-0.29519059,-0.04919281,-0.02296779,0.61072
 325,0.08089771,-0.09754532,0.00726107,0.02011074,0.65775606,-0.0230316
 6,-0.00493944,-0.06727215,0.04517006,0.00093391,0.14170039,-0.05899395
 ,-0.02530756,-0.00625973,-0.14630044,-0.16844547,-0.00972208,0.6749114
 2,-0.13620826,0.06014116,-0.01241597,-0.04658760,-0.29406893,-0.003428
 12,0.12843008,0.70303441,-0.00982913,-0.00055553,0.00416691,-0.0034625
 0,-0.01196935,-0.06461408,0.02932407,0.00503087,0.15816362,-0.08477158
 ,0.04795483,-0.00731519,0.09334070,0.04530405,0.00919721,-0.11667643,0
 .03576302,-0.00424315,0.80270665,0.04185933,-0.03852136,0.00368020,-0.
 04922471,-0.08452501,-0.00755077,0.12147671,-0.23275815,0.00466292,0.0
 0521757,0.53873221,-0.00678746,0.00426756,-0.00462762,0.00701479,0.002
 41222,0.00778322,0.00227844,0.00011583,-0.06621598,0.07362412,0.025510
 90,0.15974526,0.09679861,-0.05801941,0.00827715,-0.08586506,-0.0422671
 7,-0.00804838,-0.03711390,0.13502694,-0.00117265,-0.36716097,-0.032008
 33,-0.03403193,0.67602642,0.04727900,-0.09147026,0.00378947,-0.0446868
 1,-0.02904955,-0.00420427,0.03097143,0.04513582,0.00489785,0.09179043,
 -0.09018955,0.00815285,-0.01846937,0.60404724,0.01062717,-0.00743526,0
 .00630671,-0.01001033,-0.00517600,-0.00271371,-0.00289698,0.01429805,0
 .00659779,-0.03287575,-0.00418544,-0.06418913,0.05720902,0.00604137,0.
 14901485,-0.14695269,0.15710762,-0.00817197,-0.03780491,0.03287699,-0.
 00409603,-0.00542072,-0.00287014,0.00012883,-0.05289974,-0.02706571,-0
 .00754267,-0.14425319,-0.15115034,-0.01018873,0.59894328,0.02845823,-0
 .27140246,0.00432876,0.13670642,0.04513392,0.01282815,-0.00671458,-0.1
 1719033,-0.00429251,-0.13697768,0.05255558,-0.01294931,-0.02137842,-0.
 24497392,-0.00500901,-0.01064387,0.63970473,-0.00979355,0.01724919,-0.
 06742207,-0.00288097,0.00395713,0.00624151,0.00010492,-0.00200805,-0.0
 0468477,-0.00785440,-0.00201491,0.00591097,-0.00813158,-0.01860125,-0.
 06664840,0.05035389,0.00191080,0.14601318,-0.00048634,0.00026247,0.000
 50683,0.00053908,0.00074432,0.00004142,-0.02967695,0.00221400,-0.02122
 669,-0.00145584,-0.00029705,0.00060994,-0.00016755,0.00021646,0.000681
 38,0.00023840,-0.00020273,0.00004878,0.11967948,0.00038619,-0.00003141
 ,0.00030562,-0.00053451,-0.00136323,0.00071380,-0.00011940,0.00912956,
 -0.00406583,-0.00090115,0.00139106,-0.00051737,0.00061628,-0.00004251,
 -0.00048304,-0.00037763,-0.00016929,-0.00003595,-0.03829333,0.04990231
 ,0.00047992,-0.00005172,0.00007645,-0.00013228,-0.00037280,-0.00016968
 ,-0.01106760,0.00239207,-0.00080918,0.00156295,0.00083425,-0.00052653,
 -0.00019904,-0.00024342,-0.00018496,0.00002592,0.00044696,-0.00007369,
 0.10279396,-0.06658753,0.17338686,-0.08615754,-0.08317619,-0.00420728,
 -0.03230321,-0.02469966,-0.00381669,-0.00319443,0.00071704,-0.00082336
 ,0.00074098,0.00030900,0.00005978,-0.00109649,0.00111396,-0.00063778,0
 .00683837,0.00826699,0.00006356,-0.00001821,0.00004362,-0.00001220,0.1
 1561840,-0.08289785,-0.16550574,-0.00798061,-0.01001876,-0.00083693,-0
 .00098419,-0.00016929,-0.00031886,0.00003216,0.00087751,0.00088050,0.0
 0011131,0.00107199,-0.00260294,0.00017141,-0.00663858,-0.04030706,-0.0
 0059305,-0.00009079,0.00004941,-0.00007738,0.09739605,0.20894372,-0.00
 440865,-0.00787656,-0.04338284,-0.00353716,-0.00234656,0.00580112,-0.0
 0058228,-0.00010694,0.00556413,-0.00025019,0.00027035,0.00020601,-0.00
 064696,0.00010341,0.00555385,0.00009620,0.00075903,0.00601758,-0.00004
 493,-0.00005450,0.00002434,0.00894650,0.00934052,0.02463752,-0.0279216
 2,0.02733749,-0.00324131,-0.07397295,0.07535559,-0.00354730,0.00893960
 ,-0.01080199,0.00034622,-0.00100113,-0.00168538,-0.00072726,0.00037006
 ,-0.00007619,-0.00000225,-0.00291704,-0.00074016,-0.00076847,0.0001561
 7,-0.00053273,0.00002523,-0.00067153,0.00022784,0.00005364,0.09774687,
 0.01373435,-0.00475623,0.00137900,0.07584223,-0.18209269,0.00788796,0.
 00151399,-0.04030408,0.00012729,-0.00059971,-0.00250840,0.00011405,-0.
 00081491,0.00008960,-0.00005903,-0.00024571,0.00100630,0.00004036,-0.0
 0022589,0.00019184,-0.00010159,-0.00009665,0.00091901,-0.00003496,-0.0
 9078159,0.22733644,-0.00334920,0.00260706,0.00457957,-0.00323021,0.008
 55586,-0.04116328,-0.00054788,-0.00142184,0.00609739,-0.00084134,-0.00
 036267,0.00578809,0.00020288,0.00010008,0.00011293,-0.00069509,-0.0002
 4720,0.00498052,-0.00026606,-0.00005524,0.00025179,0.00003779,0.000013
 18,-0.00115037,0.00756222,-0.00964705,0.02408833,0.00071354,-0.0018514
 2,-0.00043471,-0.02389393,-0.01847397,-0.00260614,-0.29927226,-0.08814
 762,-0.01400266,-0.08497202,0.03165523,-0.01262527,0.00253661,0.004100
 78,-0.00260718,-0.00215673,-0.00204037,-0.00030971,-0.09297640,0.03407
 447,-0.08703944,0.00013253,0.00084888,0.00012272,-0.00159756,0.0013891
 8,0.00050397,0.52717773,0.00950850,-0.00731629,0.00100392,-0.04080214,
 -0.01184958,-0.00131253,-0.02430113,-0.04837119,0.00785513,0.05307444,
 0.00640914,0.00401989,-0.00648940,-0.00402652,-0.00000051,-0.00085425,
 0.01124137,-0.00008518,0.03464429,-0.05565615,0.04416668,-0.00075915,-
 0.00005202,-0.00026626,0.00172384,0.00111345,0.00018909,0.09578714,0.1
 6363295,0.00525300,-0.00135237,0.00593520,-0.00598955,-0.00397605,0.00
 665826,-0.00052387,0.00642220,-0.05041596,0.00841570,0.00862282,0.0219
 7085,-0.00422555,-0.00281281,0.00505403,-0.00075063,0.00580425,0.00027
 841,-0.08768006,0.05368023,-0.14415367,0.00004502,-0.00031420,-0.00078
 629,0.00059949,0.00036128,-0.00240936,0.10352976,-0.18652761,0.2914832
 5,0.00870029,-0.00309126,0.00089647,-0.01041323,-0.00242732,0.00123043
 ,0.03599470,-0.00858983,0.00166563,-0.13651239,-0.06943486,-0.02643101
 ,-0.03857932,-0.02341129,-0.00472836,-0.00253059,0.01172299,-0.0008326
 8,-0.00067773,0.00323083,-0.00331446,-0.00075643,-0.00105887,-0.000197
 60,0.00113985,0.00000803,0.00019775,-0.00522055,-0.04761661,-0.0256233
 7,0.39945624,-0.00621299,0.00293740,-0.00075381,0.01021664,0.00207078,
 -0.00053305,-0.05654537,-0.09169769,-0.01669065,-0.12360029,-0.1272437
 0,-0.03315088,-0.00650110,0.00129835,-0.00251754,0.00213217,-0.0054609
 6,0.00024916,0.00535005,-0.00343217,0.00616700,-0.00015989,-0.00038654
 ,0.00012959,-0.00036870,-0.00132345,-0.00004307,-0.07664020,0.10389516
 ,0.10854168,0.22370715,0.20359072,0.00368703,-0.00153805,0.00068366,-0
 .00483532,-0.00253719,0.00452837,0.01756087,0.00350756,0.01704516,-0.0
 2340912,-0.02532283,-0.06979158,-0.00455587,-0.00395659,0.00204129,-0.
 00166604,0.00369873,0.00559251,-0.00409491,0.00625200,0.00037024,0.000
 12937,0.00008902,-0.00089543,0.00014333,0.00047766,-0.00022755,0.04659
 322,-0.06523244,-0.08821810,-0.17085269,0.12383423,0.47823231,-0.00149
 326,-0.00112285,-0.00070513,0.00071205,0.00018604,0.00002556,-0.002401
 50,-0.00111141,-0.00100645,-0.02920322,0.02780808,-0.00315326,-0.07605
 622,0.07770164,-0.00207060,0.00679374,-0.01120927,-0.00016205,-0.00005
 998,0.00001267,-0.00001455,0.00022212,-0.00017398,0.00009295,-0.000048
 99,0.00011835,0.00009624,-0.00032987,0.00016996,-0.00001797,-0.0004697
 3,0.00056173,0.00023823,0.10165956,-0.00123834,-0.00226848,-0.00026107
 ,-0.00070460,0.00029698,-0.00001743,0.00068758,0.00037021,-0.00006675,
 0.01235067,-0.00463530,0.00111168,0.07731481,-0.17787450,0.00556192,0.
 00420846,-0.03787842,-0.00024889,0.00006977,-0.00002170,0.00003114,0.0
 0013879,-0.00040881,0.00003857,0.00009567,-0.00018202,0.00002919,-0.00
 081444,-0.00027434,0.00003423,0.00091526,0.00194165,-0.00042772,-0.092
 27235,0.22176479,-0.00038000,-0.00056142,0.00520398,-0.00035209,-0.000
 13410,0.00000120,-0.00098617,0.00013716,0.00620826,-0.00258798,0.00298
 919,0.00605420,-0.00318984,0.00534539,-0.04332542,0.00047131,-0.001320
 91,0.00588964,-0.00006454,0.00001380,0.00003573,0.00009081,-0.00005071
 ,-0.00048951,0.00009773,-0.00002346,-0.00098098,0.00023888,-0.00011515
 ,-0.00094612,-0.00030846,0.00004831,-0.00134117,0.00660133,-0.00613425
 ,0.02452924,-0.02615755,0.01592799,-0.00331879,0.00044828,0.00145665,-
 0.00059886,-0.00097505,0.00003346,-0.00028654,0.00005342,-0.00193868,-
 0.00047027,-0.02742693,-0.01456317,-0.00364662,-0.21759615,0.00458536,
 -0.01887868,-0.00009921,0.00011041,-0.00003735,0.00055532,0.00053683,0
 .00022442,-0.00024196,0.00013675,-0.00000915,0.00091417,0.00072812,0.0
 0051907,-0.00023859,-0.00102894,0.00045653,0.00048403,-0.00050986,0.00
 015429,0.27010984,0.02952804,-0.00834868,0.00306649,0.00105786,-0.0026
 6053,0.00010453,-0.00007993,0.00002432,0.00001334,-0.00127928,-0.00234
 992,-0.00031380,-0.02839394,-0.00657391,-0.00308544,0.00486814,-0.0338
 9987,0.00062042,0.00000275,-0.00000834,0.00000764,0.00086897,-0.000409
 81,0.00009024,0.00042342,0.00005774,0.00003029,-0.00007308,0.00019731,
 0.00005797,-0.00020536,0.00000272,-0.00007002,-0.00081356,-0.00028126,
 -0.00007964,-0.00583629,0.05440613,-0.00319188,0.00162295,0.00480443,-
 0.00043786,0.00014263,0.00514315,-0.00018732,0.00017198,0.00021864,-0.
 00050537,-0.00040161,0.00472540,-0.00386145,-0.00173475,0.00478389,-0.
 01893545,0.00071596,-0.04209143,-0.00012164,0.00008222,0.00005048,0.00
 019128,0.00004459,-0.00137141,-0.00000952,0.00000472,-0.00019707,0.000
 52772,-0.00004537,-0.00102296,-0.00015833,0.00007993,-0.00001111,0.000
 15176,-0.00005678,-0.00105530,0.02651527,-0.00041662,0.02574601,-0.000
 99429,0.00049156,-0.00011453,0.00153751,0.00022614,0.00021201,-0.00484
 285,-0.00237637,-0.00114429,-0.00218337,-0.01890481,-0.01415175,0.0013
 1244,0.00044232,0.00022000,-0.00009999,-0.00106224,0.00033202,0.000125
 39,0.00019348,0.00047557,0.00004488,0.00005078,-0.00001640,-0.00014273
 ,-0.00005480,-0.00008276,-0.00009787,0.00649020,0.00534952,-0.03439480
 ,-0.00030275,-0.01154334,0.00001895,-0.00010361,-0.00012433,0.00001402
 ,-0.00002587,-0.00000289,0.03932337,0.00049003,-0.00021386,0.00004493,
 -0.00067049,-0.00036105,0.00063194,0.00090430,0.00121195,0.00058729,-0
 .01472839,-0.00701666,-0.01854485,-0.00002157,-0.00166734,-0.00072852,
 -0.00038998,0.00040171,0.00070884,-0.00006918,-0.00027936,-0.00016468,
 0.00003613,0.00002732,-0.00012172,0.00001440,0.00006406,0.00001625,0.0
 0171990,-0.00596578,-0.00719214,0.00714332,-0.08016707,-0.07540497,0.0
 0012659,-0.00005556,-0.00023254,0.00001545,-0.00006011,-0.00000388,0.0
 1405564,0.08268850,-0.00012579,0.00019005,-0.00000608,0.00059134,0.000
 08279,-0.00016518,-0.00289190,-0.00194375,-0.00073907,-0.00464248,-0.0
 1355311,-0.00561095,0.00014028,0.00022080,0.00010879,0.00012646,-0.000
 09942,-0.00009306,0.00026539,-0.00008629,0.00051196,-0.00005893,-0.000
 09285,0.00002408,-0.00002687,-0.00010585,0.00002320,-0.00312181,0.0054
 4909,0.00516468,-0.00760538,-0.07641215,-0.16066999,-0.00008038,0.0001
 7019,0.00006700,-0.00008373,0.00001630,0.00002209,-0.00460632,0.090952
 56,0.20913256,0.00125454,-0.00044090,0.00021522,-0.00073795,-0.0019978
 7,-0.00043187,0.01111023,0.01143541,0.00484194,-0.01939307,-0.02710678
 ,0.02291465,0.00175721,-0.00117688,0.00128992,-0.00083544,0.00036127,-
 0.00124176,-0.00220693,-0.00012460,-0.00162750,0.00028133,0.00039472,0
 .00011264,-0.00033109,0.00060115,0.00013544,0.05321504,-0.04561307,-0.
 06233294,-0.19158751,0.01813237,0.11707493,0.00034632,-0.00044428,0.00
 021127,0.00051740,-0.00008227,-0.00004520,0.00111422,-0.01054610,0.021
 70061,0.15998643,0.00122574,-0.00041842,0.00016364,-0.00226937,-0.0009
 2727,-0.00017672,0.00610332,-0.00044667,-0.00039908,-0.02413919,-0.007
 05692,0.01467316,-0.00040396,-0.00202272,0.00099993,-0.00133515,0.0013
 9003,-0.00095552,-0.00034729,-0.00238950,-0.00280554,-0.00002984,0.000
 04885,0.00005027,0.00007878,0.00032764,0.00002007,-0.00319161,-0.04373
 252,0.02931280,-0.11280004,-0.12170118,0.13406871,-0.00000253,-0.00063
 547,0.00023442,0.00039029,-0.00012301,-0.00003738,-0.00055680,0.017298
 60,-0.00878529,0.11119075,0.21831634,-0.00300487,0.00124743,-0.0005662
 2,0.00386453,0.00237624,-0.00045748,-0.01985933,-0.01181217,-0.0055438
 7,-0.00048159,0.01219403,0.00222871,-0.00064625,0.00072819,-0.00221697
 ,0.00093339,-0.00269110,0.00045607,0.00242803,-0.00220920,0.00186780,-
 0.00008396,-0.00017406,0.00006155,0.00005020,-0.00060908,-0.00010988,-
 0.05740401,0.09290016,0.08016509,0.19175192,-0.03519943,-0.19610986,-0
 .00005470,0.00051022,-0.00014223,-0.00055952,0.00002393,0.00005567,0.0
 2643194,0.00696267,-0.04218808,-0.14239516,-0.13536109,0.21438960,0.00
 047088,-0.00028569,-0.00003836,-0.00161307,-0.00160306,-0.00038975,0.0
 0541405,0.00157393,0.00301180,-0.00446129,0.00148674,-0.00169044,0.000
 78735,-0.00017907,-0.00029287,-0.00099730,-0.00023810,-0.00012298,-0.0
 0160294,0.00078785,-0.00272631,0.00016568,0.00034626,0.00006211,-0.000
 35005,0.00062531,0.00012156,-0.02930509,-0.00835799,0.01639902,0.01045
 603,-0.00025351,-0.00291227,0.00017091,-0.00028788,0.00009137,0.000486
 22,-0.00004405,0.00010866,0.00066144,-0.00259752,-0.00001718,-0.020763
 23,0.01025892,0.00725568,0.47654464,0.00017869,-0.00006868,-0.00006854
 ,-0.00043233,-0.00017653,-0.00006000,0.00031239,0.00079685,0.00197493,
 -0.00212844,0.00143583,-0.00072299,-0.00002258,-0.00019388,-0.00020553
 ,-0.00026744,0.00010509,-0.00000086,0.00057186,-0.00094981,-0.00135400
 ,0.00003184,0.00005316,0.00000751,0.00003896,0.00006377,0.00005932,-0.
 01734769,0.00097890,0.00576812,0.00293281,-0.00616083,0.00157662,0.000
 03889,-0.00010256,0.00001711,0.00011101,-0.00002009,0.00004292,0.00038
 257,-0.00089852,0.00022035,0.00366532,0.00599247,-0.00023336,0.1102757
 0,0.03964089,0.00030527,-0.00002585,0.00019492,-0.00002571,-0.00047844
 ,0.00024443,0.00331438,0.00189736,-0.00327608,-0.00003880,0.00054504,0
 .00065771,-0.00014576,-0.00014599,0.00000240,-0.00007179,0.00021032,0.
 00012438,-0.00221565,-0.00108225,0.00073511,0.00004100,0.00000732,-0.0
 0005622,-0.00002485,0.00004104,-0.00017678,0.02604627,0.00664949,0.008
 12689,-0.00018138,0.00238011,-0.00416393,0.00002272,-0.00001592,-0.000
 08580,0.00003901,-0.00000012,-0.00006361,0.00016671,-0.00059203,0.0003
 5646,-0.00046198,0.00391538,0.00741385,0.00484200,-0.00208371,0.027211
 14,-0.00032349,0.00019134,-0.00047781,0.00078823,0.00275459,0.00041368
 ,-0.03150459,-0.01849310,0.01787851,0.00385572,-0.00215933,0.00111191,
 -0.00187629,0.00009269,-0.00007124,0.00164995,0.00111504,0.00007414,0.
 00868980,0.00142750,0.00080673,-0.00040130,-0.00070378,-0.00002796,0.0
 0084473,-0.00115077,0.00016368,-0.04486663,-0.02732870,0.04704406,-0.0
 3436253,0.01151268,0.03798531,-0.00034463,0.00059500,0.00003590,-0.000
 84680,0.00008422,-0.00003751,-0.00139744,0.00451945,0.00043605,0.00627
 511,0.01583059,-0.00822543,-0.43605116,-0.09833656,-0.03160960,0.52985
 544,-0.00020288,0.00032064,-0.00022057,0.00119243,0.00020216,0.0001050
 8,-0.00872113,0.00530314,0.01285501,0.01201585,-0.00460076,0.00571120,
 0.00076671,0.00011901,0.00181464,0.00064502,-0.00026663,-0.00019197,-0
 .00454868,0.00367900,0.01771259,-0.00000060,-0.00009210,0.00001811,-0.
 00031089,-0.00000244,0.00015597,0.03900064,-0.11021454,-0.01642719,0.0
 1897720,0.12183228,-0.09900923,-0.00001771,0.00024652,-0.00013355,-0.0
 0015590,0.00004870,-0.00021167,0.00105390,-0.00500561,0.00377495,-0.05
 823944,-0.06392612,0.07134215,-0.11151460,-0.04049355,-0.01122166,0.11
 005545,0.09285374,-0.00380471,0.00047358,-0.00034487,0.00121802,0.0012
 6622,-0.00154413,0.00294478,-0.00083246,-0.00775800,-0.00775544,-0.005
 91636,-0.00410971,0.00302567,0.00231797,-0.00029834,-0.00001809,-0.004
 09104,-0.00048937,0.00833837,0.01412832,-0.03139337,0.00003529,0.00045
 735,0.00024011,-0.00053046,0.00014770,0.00049268,0.00258993,0.09135220
 ,-0.13688581,0.04449623,-0.07613107,0.01293547,0.00003642,-0.00025855,
 0.00037568,-0.00001933,-0.00006552,0.00026284,-0.00140145,0.00307961,-
 0.00593744,0.04003664,-0.03491796,-0.05930906,-0.02370141,-0.00493537,
 -0.03724430,-0.06550384,0.01392486,0.27100967||-0.00000150,0.00000201,
 -0.00000092,-0.00000196,-0.00000521,0.00000009,0.00000239,0.00000341,-
 0.00000030,0.00000212,0.00000190,0.00000208,0.00000023,0.00000061,0.00
 000009,0.00000030,-0.00000197,0.00000020,0.00000047,0.00000043,-0.0000
 0099,-0.00000015,-0.00000008,0.00000041,0.00000018,-0.00000008,-0.0000
 0004,0.00000167,0.00000039,-0.00000312,-0.00000569,-0.00000234,0.00000
 166,0.00000008,0.00000014,-0.00000041,0.00000010,-0.00000006,-0.000000
 16,0.00000015,0.00000107,0.00000020,0.00000154,0.00000225,-0.00000178,
 0.00000266,-0.00000019,0.00000003,-0.00000261,-0.00000229,0.00000296||
 |@
 The archive entry for this job was punched.


 SI MONUMENTUM REQUIRIS, CIRCUMSPICE
     -- FROM SIR CHRISTOPHER WREN'S TOMBSTONE
 Job cpu time:       0 days  0 hours  0 minutes  6.0 seconds.
 Elapsed time:       0 days  0 hours  0 minutes  4.2 seconds.
 File lengths (MBytes):  RWF=     27 Int=      0 D2E=      0 Chk=      2 Scr=      1
 Normal termination of Gaussian 16 at Fri Nov 14 21:52:53 2025.
