 Default is to use a total of   8 processors:
                                8 via shared-memory
                                1 via Linda
 Entering Link 1 = C:\G16W\l1.exe PID=     21836.
  
 Copyright (c) 1988-2019, Gaussian, Inc.  All Rights Reserved.
  
 This is part of the Gaussian(R) 16 program.  It is based on
 the Gaussian(R) 09 system (copyright 2009, Gaussian, Inc.),
 the Gaussian(R) 03 system (copyright 2003, Gaussian, Inc.),
 the Gaussian(R) 98 system (copyright 1998, Gaussian, Inc.),
 the Gaussian(R) 94 system (copyright 1995, Gaussian, Inc.),
 the Gaussian 92(TM) system (copyright 1992, Gaussian, Inc.),
 the Gaussian 90(TM) system (copyright 1990, Gaussian, Inc.),
 the Gaussian 88(TM) system (copyright 1988, Gaussian, Inc.),
 the Gaussian 86(TM) system (copyright 1986, Carnegie Mellon
 University), and the Gaussian 82(TM) system (copyright 1983,
 Carnegie Mellon University). Gaussian is a federally registered
 trademark of Gaussian, Inc.
  
 This software contains proprietary and confidential information,
 including trade secrets, belonging to Gaussian, Inc.
  
 This software is provided under written license and may be
 used, copied, transmitted, or stored only in accord with that
 written license.
  
 The following legend is applicable only to US Government
 contracts under FAR:
  
                    RESTRICTED RIGHTS LEGEND
  
 Use, reproduction and disclosure by the US Government is
 subject to restrictions as set forth in subparagraphs (a)
 and (c) of the Commercial Computer Software - Restricted
 Rights clause in FAR 52.227-19.
  
 Gaussian, Inc.
 340 Quinnipiac St., Bldg. 40, Wallingford CT 06492
  
  
 ---------------------------------------------------------------
 Warning -- This program may not be used in any manner that
 competes with the business of Gaussian, Inc. or will provide
 assistance to any competitor of Gaussian, Inc.  The licensee
 of this program is prohibited from giving any competitor of
 Gaussian, Inc. access to this program.  By using this program,
 the user acknowledges that Gaussian, Inc. is engaged in the
 business of creating and licensing software in the field of
 computational chemistry and represents and warrants to the
 licensee that it is not a competitor of Gaussian, Inc. and that
 it will not use this program in any manner prohibited above.
 ---------------------------------------------------------------
  

 Cite this work as:
 Gaussian 16, Revision C.01,
 M. J. Frisch, G. W. Trucks, H. B. Schlegel, G. E. Scuseria, 
 M. A. Robb, J. R. Cheeseman, G. Scalmani, V. Barone, 
 G. A. Petersson, H. Nakatsuji, X. Li, M. Caricato, A. V. Marenich, 
 J. Bloino, B. G. Janesko, R. Gomperts, B. Mennucci, H. P. Hratchian, 
 J. V. Ortiz, A. F. Izmaylov, J. L. Sonnenberg, D. Williams-Young, 
 F. Ding, F. Lipparini, F. Egidi, J. Goings, B. Peng, A. Petrone, 
 T. Henderson, D. Ranasinghe, V. G. Zakrzewski, J. Gao, N. Rega, 
 G. Zheng, W. Liang, M. Hada, M. Ehara, K. Toyota, R. Fukuda, 
 J. Hasegawa, M. Ishida, T. Nakajima, Y. Honda, O. Kitao, H. Nakai, 
 T. Vreven, K. Throssell, J. A. Montgomery, Jr., J. E. Peralta, 
 F. Ogliaro, M. J. Bearpark, J. J. Heyd, E. N. Brothers, K. N. Kudin, 
 V. N. Staroverov, T. A. Keith, R. Kobayashi, J. Normand, 
 K. Raghavachari, A. P. Rendell, J. C. Burant, S. S. Iyengar, 
 J. Tomasi, M. Cossi, J. M. Millam, M. Klene, C. Adamo, R. Cammi, 
 J. W. Ochterski, R. L. Martin, K. Morokuma, O. Farkas, 
 J. B. Foresman, and D. J. Fox, Gaussian, Inc., Wallingford CT, 2019.
 
 ******************************************
 Gaussian 16:  EM64W-G16RevC.01 30-May-2019
                14-Nov-2025 
 ******************************************
 %chk=C:\Users\al6323\OneDrive - Imperial College London\Desktop\TSR20251114\TS_e
 ndo_unfreeze_Berny_opt+freq.chk
 Default route: MaxDisk=10GB
 ----------------------------------------------------------------------
 # opt=(calcfc,tight,ts,noeigen) freq rpm6 nosymm geom=connectivity scf
 =(xqc,verytight)
 ----------------------------------------------------------------------
 1/5=1,7=10,10=4,11=1,18=20,26=1,38=1,57=2/1,3;
 2/9=110,12=2,15=1,17=6,18=5,40=1/2;
 3/5=2,25=1,41=3900000,71=2,116=1,140=1/1,2,3;
 4/35=1/1;
 5/5=2,8=3,13=1,17=3,35=1,38=5/2,8;
 8/6=4,10=90,11=11/1;
 11/6=1,8=1,9=11,15=111,16=1,31=1/1,2,10;
 10/6=1,13=1,31=1/2;
 6/7=2,8=2,9=2,10=2,28=1/1;
 7/10=1,25=1,30=1/1,2,3,16;
 1/5=1,7=10,10=4,11=1,18=20,26=1/3(2);
 2/9=110,15=1/2;
 99//99;
 2/9=110,15=1/2;
 3/5=2,25=1,41=3900000,71=1,116=1,135=20/1,2,3;
 4/5=5,16=3,35=1/1;
 5/5=2,8=3,13=1,17=3,35=1,38=5/2,8;
 7/30=1/1,2,3,16;
 1/5=1,7=10,11=1,18=20,26=1/3(-5);
 2/9=110,15=1/2;
 6/7=2,8=2,9=2,10=2,19=2,28=1/1;
 99/9=1/99;
 -------------------
 Title Card Required
 -------------------
 Symbolic Z-matrix:
 Charge =  0 Multiplicity = 1
 C                    -5.63721  -1.6865    0.20887 
 C                    -4.29412  -1.78326   0.17595 
 C                    -3.40665  -0.62275  -0.04936 
 C                    -4.06799   0.70793   0.0336 
 C                    -5.54897   0.7361   -0.06613 
 C                    -6.27735  -0.39349   0.02789 
 H                    -1.5154   -1.64222  -0.47834 
 H                    -6.27878  -2.55148   0.35982 
 H                    -3.78787  -2.74298   0.29341 
 C                    -2.13859  -0.80632  -0.35146 
 C                    -3.52113   1.88823   0.2093 
 H                    -6.01715   1.70734  -0.21368 
 H                    -7.36683  -0.37532  -0.03333 
 H                    -3.50412   2.92831   0.33663 
 O                    -1.52723   1.9423    0.35583 
 O                    -0.84351   1.32052  -2.06061 
 S                    -0.72909   1.11474  -0.63928 
 

 GradGradGradGradGradGradGradGradGradGradGradGradGradGradGradGradGradGrad
 Berny optimization.
 Initialization pass.
                           ----------------------------
                           !    Initial Parameters    !
                           ! (Angstroms and Degrees)  !
 --------------------------                            --------------------------
 ! Name  Definition              Value          Derivative Info.                !
 --------------------------------------------------------------------------------
 ! R1    R(1,2)                  1.347          calculate D2E/DX2 analytically  !
 ! R2    R(1,6)                  1.4541         calculate D2E/DX2 analytically  !
 ! R3    R(1,8)                  1.0875         calculate D2E/DX2 analytically  !
 ! R4    R(2,3)                  1.4782         calculate D2E/DX2 analytically  !
 ! R5    R(2,9)                  1.0914         calculate D2E/DX2 analytically  !
 ! R6    R(3,4)                  1.4883         calculate D2E/DX2 analytically  !
 ! R7    R(3,10)                 1.3164         calculate D2E/DX2 analytically  !
 ! R8    R(4,5)                  1.4846         calculate D2E/DX2 analytically  !
 ! R9    R(4,11)                 1.3126         calculate D2E/DX2 analytically  !
 ! R10   R(5,6)                  1.3474         calculate D2E/DX2 analytically  !
 ! R11   R(5,12)                 1.0882         calculate D2E/DX2 analytically  !
 ! R12   R(6,13)                 1.0914         calculate D2E/DX2 analytically  !
 ! R13   R(7,10)                 1.0503         calculate D2E/DX2 analytically  !
 ! R14   R(10,17)                2.4            calculate D2E/DX2 analytically  !
 ! R15   R(11,14)                1.048          calculate D2E/DX2 analytically  !
 ! R16   R(11,15)                2.0            calculate D2E/DX2 analytically  !
 ! R17   R(15,17)                1.5206         calculate D2E/DX2 analytically  !
 ! R18   R(16,17)                1.4407         calculate D2E/DX2 analytically  !
 ! A1    A(2,1,6)              119.9866         calculate D2E/DX2 analytically  !
 ! A2    A(2,1,8)              122.3119         calculate D2E/DX2 analytically  !
 ! A3    A(6,1,8)              117.6995         calculate D2E/DX2 analytically  !
 ! A4    A(1,2,3)              123.0902         calculate D2E/DX2 analytically  !
 ! A5    A(1,2,9)              121.5369         calculate D2E/DX2 analytically  !
 ! A6    A(3,2,9)              115.3587         calculate D2E/DX2 analytically  !
 ! A7    A(2,3,4)              115.2562         calculate D2E/DX2 analytically  !
 ! A8    A(2,3,10)             120.252          calculate D2E/DX2 analytically  !
 ! A9    A(4,3,10)             124.4385         calculate D2E/DX2 analytically  !
 ! A10   A(3,4,5)              117.1615         calculate D2E/DX2 analytically  !
 ! A11   A(3,4,11)             128.7773         calculate D2E/DX2 analytically  !
 ! A12   A(5,4,11)             114.0496         calculate D2E/DX2 analytically  !
 ! A13   A(4,5,6)              121.2445         calculate D2E/DX2 analytically  !
 ! A14   A(4,5,12)             117.0787         calculate D2E/DX2 analytically  !
 ! A15   A(6,5,12)             121.6763         calculate D2E/DX2 analytically  !
 ! A16   A(1,6,5)              121.077          calculate D2E/DX2 analytically  !
 ! A17   A(1,6,13)             117.469          calculate D2E/DX2 analytically  !
 ! A18   A(5,6,13)             121.4533         calculate D2E/DX2 analytically  !
 ! A19   A(3,10,7)             135.254          calculate D2E/DX2 analytically  !
 ! A20   A(3,10,17)            118.7911         calculate D2E/DX2 analytically  !
 ! A21   A(7,10,17)            105.9079         calculate D2E/DX2 analytically  !
 ! A22   A(4,11,14)            156.2653         calculate D2E/DX2 analytically  !
 ! A23   A(4,11,15)            116.7088         calculate D2E/DX2 analytically  !
 ! A24   A(14,11,15)            87.0244         calculate D2E/DX2 analytically  !
 ! A25   A(11,15,17)           117.428          calculate D2E/DX2 analytically  !
 ! A26   A(10,17,15)            92.8022         calculate D2E/DX2 analytically  !
 ! A27   A(10,17,16)           100.7193         calculate D2E/DX2 analytically  !
 ! A28   A(15,17,16)           121.7495         calculate D2E/DX2 analytically  !
 ! D1    D(6,1,2,3)             -0.4765         calculate D2E/DX2 analytically  !
 ! D2    D(6,1,2,9)           -179.0423         calculate D2E/DX2 analytically  !
 ! D3    D(8,1,2,3)            179.0011         calculate D2E/DX2 analytically  !
 ! D4    D(8,1,2,9)              0.4353         calculate D2E/DX2 analytically  !
 ! D5    D(2,1,6,5)             -5.4128         calculate D2E/DX2 analytically  !
 ! D6    D(2,1,6,13)           174.2987         calculate D2E/DX2 analytically  !
 ! D7    D(8,1,6,5)            175.0858         calculate D2E/DX2 analytically  !
 ! D8    D(8,1,6,13)            -5.2027         calculate D2E/DX2 analytically  !
 ! D9    D(1,2,3,4)             11.8362         calculate D2E/DX2 analytically  !
 ! D10   D(1,2,3,10)          -165.6262         calculate D2E/DX2 analytically  !
 ! D11   D(9,2,3,4)           -169.5165         calculate D2E/DX2 analytically  !
 ! D12   D(9,2,3,10)            13.0211         calculate D2E/DX2 analytically  !
 ! D13   D(2,3,4,5)            -17.2376         calculate D2E/DX2 analytically  !
 ! D14   D(2,3,4,11)           161.4452         calculate D2E/DX2 analytically  !
 ! D15   D(10,3,4,5)           160.1045         calculate D2E/DX2 analytically  !
 ! D16   D(10,3,4,11)          -21.2127         calculate D2E/DX2 analytically  !
 ! D17   D(2,3,10,7)            -1.0218         calculate D2E/DX2 analytically  !
 ! D18   D(2,3,10,17)         -178.1223         calculate D2E/DX2 analytically  !
 ! D19   D(4,3,10,7)          -178.2389         calculate D2E/DX2 analytically  !
 ! D20   D(4,3,10,17)            4.6606         calculate D2E/DX2 analytically  !
 ! D21   D(3,4,5,6)             12.6317         calculate D2E/DX2 analytically  !
 ! D22   D(3,4,5,12)          -167.6258         calculate D2E/DX2 analytically  !
 ! D23   D(11,4,5,6)          -166.2439         calculate D2E/DX2 analytically  !
 ! D24   D(11,4,5,12)           13.4986         calculate D2E/DX2 analytically  !
 ! D25   D(3,4,11,14)         -178.0641         calculate D2E/DX2 analytically  !
 ! D26   D(3,4,11,15)            1.2348         calculate D2E/DX2 analytically  !
 ! D27   D(5,4,11,14)            0.6525         calculate D2E/DX2 analytically  !
 ! D28   D(5,4,11,15)          179.9514         calculate D2E/DX2 analytically  !
 ! D29   D(4,5,6,1)             -1.0206         calculate D2E/DX2 analytically  !
 ! D30   D(4,5,6,13)           179.2795         calculate D2E/DX2 analytically  !
 ! D31   D(12,5,6,1)           179.2488         calculate D2E/DX2 analytically  !
 ! D32   D(12,5,6,13)           -0.4511         calculate D2E/DX2 analytically  !
 ! D33   D(3,10,17,15)          30.3669         calculate D2E/DX2 analytically  !
 ! D34   D(3,10,17,16)         -92.6891         calculate D2E/DX2 analytically  !
 ! D35   D(7,10,17,15)        -147.5111         calculate D2E/DX2 analytically  !
 ! D36   D(7,10,17,16)          89.4329         calculate D2E/DX2 analytically  !
 ! D37   D(4,11,15,17)          44.5211         calculate D2E/DX2 analytically  !
 ! D38   D(14,11,15,17)       -135.7615         calculate D2E/DX2 analytically  !
 ! D39   D(11,15,17,10)        -45.5459         calculate D2E/DX2 analytically  !
 ! D40   D(11,15,17,16)         58.889          calculate D2E/DX2 analytically  !
 --------------------------------------------------------------------------------
 Trust Radius=3.00D-01 FncErr=1.00D-07 GrdErr=1.00D-07 EigMax=2.50D+02 EigMin=1.00D-04
 Number of steps in this run=     96 maximum allowed number of steps=    102.
 Search for a saddle point of order  1.
 GradGradGradGradGradGradGradGradGradGradGradGradGradGradGradGradGradGrad

                          Input orientation:                          
 ---------------------------------------------------------------------
 Center     Atomic      Atomic             Coordinates (Angstroms)
 Number     Number       Type             X           Y           Z
 ---------------------------------------------------------------------
      1          6           0       -5.637206   -1.686504    0.208868
      2          6           0       -4.294115   -1.783259    0.175948
      3          6           0       -3.406654   -0.622746   -0.049363
      4          6           0       -4.067991    0.707934    0.033603
      5          6           0       -5.548966    0.736102   -0.066130
      6          6           0       -6.277354   -0.393493    0.027893
      7          1           0       -1.515405   -1.642222   -0.478337
      8          1           0       -6.278779   -2.551478    0.359823
      9          1           0       -3.787868   -2.742983    0.293410
     10          6           0       -2.138586   -0.806323   -0.351464
     11          6           0       -3.521126    1.888235    0.209300
     12          1           0       -6.017152    1.707342   -0.213676
     13          1           0       -7.366834   -0.375321   -0.033334
     14          1           0       -3.504120    2.928306    0.336632
     15          8           0       -1.527234    1.942303    0.355834
     16          8           0       -0.843508    1.320520   -2.060606
     17         16           0       -0.729087    1.114738   -0.639276
 ---------------------------------------------------------------------
                    Distance matrix (angstroms):
                    1          2          3          4          5
     1  C    0.000000
     2  C    1.346974   0.000000
     3  C    2.484679   1.478223   0.000000
     4  C    2.868186   2.505481   1.488274   0.000000
     5  C    2.439761   2.824966   2.536976   1.484596   0.000000
     6  C    1.454104   2.426232   2.880875   2.468695   1.347358
     7  H    4.178930   2.858183   2.190930   3.507280   4.700633
     8  H    1.087466   2.136085   3.483754   3.951932   3.394443
     9  H    2.131513   1.091400   2.181335   3.472002   3.915963
    10  C    3.650895   2.424639   1.316420   2.482712   3.753822
    11  C    4.154101   3.752131   2.526863   1.312646   2.348490
    12  H    3.441089   3.912155   3.503000   2.204357   1.088244
    13  H    2.183913   3.386398   3.967934   3.472792   2.130958
    14  H    5.085553   4.780037   3.573298   2.310806   3.024792
    15  O    5.484680   4.644114   3.205601   2.843052   4.219870
    16  O    6.096905   5.151922   3.793560   3.893361   5.144006
    17  S    5.714538   4.666091   3.245954   3.430239   4.868582
                    6          7          8          9         10
     6  C    0.000000
     7  H    4.948914   0.000000
     8  H    2.183364   4.921279   0.000000
     9  H    3.433387   2.640333   2.499145   0.000000
    10  C    4.176570   1.050323   4.548922   2.624242   0.000000
    11  C    3.582734   4.118238   5.228609   4.639656   3.080019
    12  H    2.130626   5.617415   4.305217   5.003223   4.623935
    13  H    1.091351   6.003523   2.464568   4.303671   5.255620
    14  H    4.338259   5.050632   6.142255   5.678547   4.035543
    15  O    5.303501   3.680326   6.539974   5.202525   2.903268
    16  O    6.068471   3.425326   7.098803   5.542806   3.020241
    17  S    5.788190   2.871415   6.725951   5.010794   2.400000
                   11         12         13         14         15
    11  C    0.000000
    12  H    2.538066   0.000000
    13  H    4.469007   2.488302   0.000000
    14  H    1.047974   2.847617   5.096213   0.000000
    15  O    2.000000   4.531988   6.294741   2.209219   0.000000
    16  O    3.555897   5.507029   7.038429   3.925631   2.587136
    17  S    3.018917   5.338160   6.829870   3.455754   1.520575
                   16         17
    16  O    0.000000
    17  S    1.440700   0.000000
 Symmetry turned off by external request.
 Stoichiometry    C8H6O2S
 Framework group  C1[X(C8H6O2S)]
 Deg. of freedom    45
 Full point group                 C1      NOp   1
 Rotational constants (GHZ):           2.3063973           0.6075490           0.5283046
 Standard basis: VSTO-6G (5D, 7F)
    55 basis functions,   336 primitive gaussians,    56 cartesian basis functions
    28 alpha electrons       28 beta electrons
       nuclear repulsion energy       312.8447375022 Hartrees.
 Integral buffers will be    131072 words long.
 Regular integral format.
 Two-electron integral symmetry is turned off.
 Do NDO integrals.
 One-electron integrals computed using PRISM.
 NBasis=    55 RedAO= F EigKep=  0.00D+00  NBF=    55
 NBsUse=    55 1.00D-04 EigRej=  0.00D+00 NBFU=    55
 Nonelectrostatic core Hamiltonian diagonalized for initial guess.
 Keep J ints in memory in canonical form, NReq=1858957.
 Overlap will be assumed to be unity.
 Requested convergence on RMS density matrix=1.00D-08 within  32 cycles.
 Requested convergence on MAX density matrix=1.00D-06.
 Requested convergence on             energy=1.00D-06.
 No special actions if energy rises.
 SCF Done:  E(RPM6) =  0.138084013329     A.U. after   24 cycles
            NFock= 23  Conv=0.41D-08     -V/T= 1.0013
 QCSCF skips out because SCF is already converged.
 Range of M.O.s used for correlation:     1    55
 NBasis=    55 NAE=    28 NBE=    28 NFC=     0 NFV=     0
 NROrb=     55 NOA=    28 NOB=    28 NVA=    27 NVB=    27
 Symmetrizing basis deriv contribution to polar:
 IMax=3 JMax=2 DiffMx= 0.00D+00
 G2DrvN: will do    18 centers at a time, making    1 passes.
 Calling FoFCou, ICntrl=  3107 FMM=F I1Cent=   0 AccDes= 0.00D+00.
 End of G2Drv F.D. properties file   721 does not exist.
 End of G2Drv F.D. properties file   722 does not exist.
 End of G2Drv F.D. properties file   788 does not exist.
          IDoAtm=11111111111111111
          Differentiating once with respect to nuclear coordinates.
          Electric field/nuclear overlap derivatives assumed to be zero.
 Keep J ints in memory in canonical form, NReq=1860754.
          There are    54 degrees of freedom in the 1st order CPHF.  IDoFFX=5 NUNeed=    54.
 LinEq1:  Iter=  0 NonCon=    51 RMS=1.42D-02 Max=1.26D-01 NDo=    51
 AX will form    54 AO Fock derivatives at one time.
 LinEq1:  Iter=  1 NonCon=    51 RMS=5.85D-03 Max=8.29D-02 NDo=    54
 LinEq1:  Iter=  2 NonCon=    51 RMS=1.11D-03 Max=1.08D-02 NDo=    54
 LinEq1:  Iter=  3 NonCon=    51 RMS=3.17D-04 Max=4.25D-03 NDo=    54
 LinEq1:  Iter=  4 NonCon=    51 RMS=9.91D-05 Max=1.00D-03 NDo=    54
 LinEq1:  Iter=  5 NonCon=    51 RMS=3.17D-05 Max=4.37D-04 NDo=    54
 LinEq1:  Iter=  6 NonCon=    51 RMS=8.24D-06 Max=6.75D-05 NDo=    54
 LinEq1:  Iter=  7 NonCon=    51 RMS=2.49D-06 Max=2.39D-05 NDo=    54
 LinEq1:  Iter=  8 NonCon=    51 RMS=6.20D-07 Max=6.47D-06 NDo=    54
 LinEq1:  Iter=  9 NonCon=    37 RMS=1.66D-07 Max=1.44D-06 NDo=    54
 LinEq1:  Iter= 10 NonCon=    20 RMS=3.57D-08 Max=3.37D-07 NDo=    37
 LinEq1:  Iter= 11 NonCon=     0 RMS=6.75D-09 Max=7.64D-08 NDo=    20
 Linear equations converged to 1.000D-08 1.000D-07 after    11 iterations.
 End of Minotr F.D. properties file   721 does not exist.
 End of Minotr F.D. properties file   722 does not exist.
 End of Minotr F.D. properties file   788 does not exist.

 **********************************************************************

            Population analysis using the SCF Density.

 **********************************************************************

 Alpha  occ. eigenvalues --   -1.15190  -1.09966  -1.04927  -1.01641  -0.98857
 Alpha  occ. eigenvalues --   -0.90232  -0.81775  -0.77800  -0.75649  -0.69848
 Alpha  occ. eigenvalues --   -0.64377  -0.61177  -0.59305  -0.55604  -0.53879
 Alpha  occ. eigenvalues --   -0.53270  -0.51910  -0.51604  -0.50553  -0.47806
 Alpha  occ. eigenvalues --   -0.45620  -0.43605  -0.43018  -0.41427  -0.39909
 Alpha  occ. eigenvalues --   -0.36838  -0.32762  -0.30268
 Alpha virt. eigenvalues --   -0.04743  -0.03135  -0.00143   0.02147   0.03057
 Alpha virt. eigenvalues --    0.04145   0.08175   0.08849   0.12854   0.13359
 Alpha virt. eigenvalues --    0.13965   0.15745   0.16625   0.18362   0.19243
 Alpha virt. eigenvalues --    0.19739   0.20036   0.21044   0.21504   0.22058
 Alpha virt. eigenvalues --    0.23338   0.24496   0.24769   0.25477   0.26271
 Alpha virt. eigenvalues --    0.26606   0.29852
          Condensed to atoms (all electrons):
               1          2          3          4          5          6
     1  C    4.243840   0.000000   0.000000   0.000000   0.000000   0.000000
     2  C    0.000000   4.063277   0.000000   0.000000   0.000000   0.000000
     3  C    0.000000   0.000000   4.019930   0.000000   0.000000   0.000000
     4  C    0.000000   0.000000   0.000000   3.977734   0.000000   0.000000
     5  C    0.000000   0.000000   0.000000   0.000000   4.236919   0.000000
     6  C    0.000000   0.000000   0.000000   0.000000   0.000000   4.027382
     7  H    0.000000   0.000000   0.000000   0.000000   0.000000   0.000000
     8  H    0.000000   0.000000   0.000000   0.000000   0.000000   0.000000
     9  H    0.000000   0.000000   0.000000   0.000000   0.000000   0.000000
    10  C    0.000000   0.000000   0.000000   0.000000   0.000000   0.000000
    11  C    0.000000   0.000000   0.000000   0.000000   0.000000   0.000000
    12  H    0.000000   0.000000   0.000000   0.000000   0.000000   0.000000
    13  H    0.000000   0.000000   0.000000   0.000000   0.000000   0.000000
    14  H    0.000000   0.000000   0.000000   0.000000   0.000000   0.000000
    15  O    0.000000   0.000000   0.000000   0.000000   0.000000   0.000000
    16  O    0.000000   0.000000   0.000000   0.000000   0.000000   0.000000
    17  S    0.000000   0.000000   0.000000   0.000000   0.000000   0.000000
               7          8          9         10         11         12
     1  C    0.000000   0.000000   0.000000   0.000000   0.000000   0.000000
     2  C    0.000000   0.000000   0.000000   0.000000   0.000000   0.000000
     3  C    0.000000   0.000000   0.000000   0.000000   0.000000   0.000000
     4  C    0.000000   0.000000   0.000000   0.000000   0.000000   0.000000
     5  C    0.000000   0.000000   0.000000   0.000000   0.000000   0.000000
     6  C    0.000000   0.000000   0.000000   0.000000   0.000000   0.000000
     7  H    0.847635   0.000000   0.000000   0.000000   0.000000   0.000000
     8  H    0.000000   0.842191   0.000000   0.000000   0.000000   0.000000
     9  H    0.000000   0.000000   0.853625   0.000000   0.000000   0.000000
    10  C    0.000000   0.000000   0.000000   4.406615   0.000000   0.000000
    11  C    0.000000   0.000000   0.000000   0.000000   3.884117   0.000000
    12  H    0.000000   0.000000   0.000000   0.000000   0.000000   0.841825
    13  H    0.000000   0.000000   0.000000   0.000000   0.000000   0.000000
    14  H    0.000000   0.000000   0.000000   0.000000   0.000000   0.000000
    15  O    0.000000   0.000000   0.000000   0.000000   0.000000   0.000000
    16  O    0.000000   0.000000   0.000000   0.000000   0.000000   0.000000
    17  S    0.000000   0.000000   0.000000   0.000000   0.000000   0.000000
              13         14         15         16         17
     1  C    0.000000   0.000000   0.000000   0.000000   0.000000
     2  C    0.000000   0.000000   0.000000   0.000000   0.000000
     3  C    0.000000   0.000000   0.000000   0.000000   0.000000
     4  C    0.000000   0.000000   0.000000   0.000000   0.000000
     5  C    0.000000   0.000000   0.000000   0.000000   0.000000
     6  C    0.000000   0.000000   0.000000   0.000000   0.000000
     7  H    0.000000   0.000000   0.000000   0.000000   0.000000
     8  H    0.000000   0.000000   0.000000   0.000000   0.000000
     9  H    0.000000   0.000000   0.000000   0.000000   0.000000
    10  C    0.000000   0.000000   0.000000   0.000000   0.000000
    11  C    0.000000   0.000000   0.000000   0.000000   0.000000
    12  H    0.000000   0.000000   0.000000   0.000000   0.000000
    13  H    0.855303   0.000000   0.000000   0.000000   0.000000
    14  H    0.000000   0.803127   0.000000   0.000000   0.000000
    15  O    0.000000   0.000000   6.664223   0.000000   0.000000
    16  O    0.000000   0.000000   0.000000   6.642944   0.000000
    17  S    0.000000   0.000000   0.000000   0.000000   4.789315
 Mulliken charges:
               1
     1  C   -0.243840
     2  C   -0.063277
     3  C   -0.019930
     4  C    0.022266
     5  C   -0.236919
     6  C   -0.027382
     7  H    0.152365
     8  H    0.157809
     9  H    0.146375
    10  C   -0.406615
    11  C    0.115883
    12  H    0.158175
    13  H    0.144697
    14  H    0.196873
    15  O   -0.664223
    16  O   -0.642944
    17  S    1.210685
 Sum of Mulliken charges =   0.00000
 Mulliken charges with hydrogens summed into heavy atoms:
               1
     1  C   -0.086031
     2  C    0.083098
     3  C   -0.019930
     4  C    0.022266
     5  C   -0.078744
     6  C    0.117316
    10  C   -0.254250
    11  C    0.312756
    15  O   -0.664223
    16  O   -0.642944
    17  S    1.210685
 APT charges:
               1
     1  C   -0.243840
     2  C   -0.063277
     3  C   -0.019930
     4  C    0.022266
     5  C   -0.236919
     6  C   -0.027382
     7  H    0.152365
     8  H    0.157809
     9  H    0.146375
    10  C   -0.406615
    11  C    0.115883
    12  H    0.158175
    13  H    0.144697
    14  H    0.196873
    15  O   -0.664223
    16  O   -0.642944
    17  S    1.210685
 Sum of APT charges =   0.00000
 APT charges with hydrogens summed into heavy atoms:
               1
     1  C   -0.086031
     2  C    0.083098
     3  C   -0.019930
     4  C    0.022266
     5  C   -0.078744
     6  C    0.117316
    10  C   -0.254250
    11  C    0.312756
    15  O   -0.664223
    16  O   -0.642944
    17  S    1.210685
 Charge=              0.0000 electrons
 Dipole moment (field-independent basis, Debye):
    X=             -1.6429    Y=             -0.8307    Z=              2.2134  Tot=              2.8789
 N-N= 3.128447375022D+02 E-N=-4.815595024529D+02  KE=-1.080774453090D+02
  Exact polarizability:       0.000       0.000       0.000       0.000       0.000       0.000
 Approx polarizability:     127.631      16.473     113.901     -18.058       1.310      46.326
 Calling FoFJK, ICntrl=    100127 FMM=F ISym2X=0 I1Cent= 0 IOpClX= 0 NMat=1 NMatS=1 NMatT=0.
 -------------------------------------------------------------------
 Center     Atomic                   Forces (Hartrees/Bohr)
 Number     Number              X              Y              Z
 -------------------------------------------------------------------
      1        6           0.000000063    0.000000086   -0.000000016
      2        6          -0.000000064    0.000000049   -0.000000016
      3        6          -0.000000043   -0.000000005   -0.000000045
      4        6           0.000000055    0.000000054    0.000000052
      5        6          -0.000000036   -0.000000088    0.000000031
      6        6           0.000000095   -0.000000002    0.000000001
      7        1          -0.000000032    0.000000030    0.000000015
      8        1           0.000000027    0.000000040   -0.000000004
      9        1          -0.000000025    0.000000047   -0.000000004
     10        6           0.034791738    0.047419191   -0.007104244
     11        6           0.067880439    0.001840509    0.004988493
     12        1           0.000000024   -0.000000049    0.000000005
     13        1           0.000000060   -0.000000002    0.000000000
     14        1           0.000000003   -0.000000036    0.000000002
     15        8          -0.067880352   -0.001840813   -0.004988655
     16        8          -0.000000029   -0.000000018    0.000000104
     17       16          -0.034791923   -0.047418995    0.007104279
 -------------------------------------------------------------------
 Cartesian Forces:  Max     0.067880439 RMS     0.017872681
 FormGI is forming the generalized inverse of G from B-inverse, IUseBI=4.

 GradGradGradGradGradGradGradGradGradGradGradGradGradGradGradGradGradGrad
 Berny optimization.
 Internal  Forces:  Max     0.066395067 RMS     0.009641884
 Search for a saddle point.
 Step number   1 out of a maximum of   96
 All quantities printed in internal units (Hartrees-Bohrs-Radians)
 Swapping is turned off.
 Second derivative matrix not updated -- analytic derivatives used.
 ITU=  0
     Eigenvalues ---   -0.05874  -0.00250   0.00231   0.00391   0.00440
     Eigenvalues ---    0.00660   0.00873   0.01007   0.01475   0.01917
     Eigenvalues ---    0.02141   0.02308   0.02405   0.02918   0.03037
     Eigenvalues ---    0.04498   0.05105   0.06468   0.06972   0.08893
     Eigenvalues ---    0.09734   0.10371   0.10876   0.11034   0.11107
     Eigenvalues ---    0.11629   0.13949   0.14476   0.15428   0.25654
     Eigenvalues ---    0.26004   0.26711   0.27076   0.27597   0.27950
     Eigenvalues ---    0.28757   0.32040   0.36581   0.37186   0.41820
     Eigenvalues ---    0.49570   0.65956   0.70943   0.73835   0.75544
 Eigenvectors required to have negative eigenvalues:
                          R16       R14       A22       A24       R17
   1                    0.81482   0.44489   0.21747  -0.18732  -0.16017
                          A20       A21       D39       A28       A26
   1                    0.07150  -0.05882   0.05700   0.05497  -0.04401
 RFO step:  Lambda0=5.757680466D-02 Lambda=-2.77151092D-02.
 Linear search not attempted -- option 19 set.
 Maximum step size (   0.300) exceeded in Quadratic search.
    -- Step size scaled by   0.283
 Iteration  1 RMS(Cart)=  0.03317101 RMS(Int)=  0.00284541
 Iteration  2 RMS(Cart)=  0.00309325 RMS(Int)=  0.00012252
 Iteration  3 RMS(Cart)=  0.00000435 RMS(Int)=  0.00012248
 Iteration  4 RMS(Cart)=  0.00000000 RMS(Int)=  0.00012248
 Variable       Old X    -DE/DX   Delta X   Delta X   Delta X     New X
                                 (Linear)    (Quad)   (Total)
    R1        2.54541   0.00019   0.00000   0.00107   0.00106   2.54647
    R2        2.74786   0.00046   0.00000  -0.00239  -0.00241   2.74545
    R3        2.05501   0.00000   0.00000  -0.00014  -0.00014   2.05487
    R4        2.79344  -0.00025   0.00000  -0.00292  -0.00290   2.79054
    R5        2.06245   0.00000   0.00000   0.00108   0.00108   2.06353
    R6        2.81243  -0.00268   0.00000   0.00499   0.00519   2.81762
    R7        2.48767  -0.00157   0.00000   0.00126   0.00145   2.48913
    R8        2.80548  -0.00019   0.00000   0.00158   0.00158   2.80706
    R9        2.48054  -0.00075   0.00000  -0.01177  -0.01173   2.46881
   R10        2.54614   0.00026   0.00000   0.00082   0.00080   2.54694
   R11        2.05648   0.00000   0.00000  -0.00084  -0.00084   2.05565
   R12        2.06235   0.00000   0.00000   0.00104   0.00104   2.06340
   R13        1.98482   0.00000   0.00000   0.00373   0.00373   1.98856
   R14        4.53534  -0.05865   0.00000  -0.09772  -0.09769   4.43765
   R15        1.98038   0.00000   0.00000  -0.00522  -0.00522   1.97516
   R16        3.77945  -0.06640   0.00000   0.22419   0.22404   4.00349
   R17        2.87347   0.00106   0.00000  -0.03939  -0.03960   2.83387
   R18        2.72253   0.00000   0.00000   0.00112   0.00112   2.72365
    A1        2.09416  -0.00004   0.00000  -0.00091  -0.00090   2.09326
    A2        2.13475   0.00002   0.00000  -0.00032  -0.00032   2.13442
    A3        2.05424   0.00002   0.00000   0.00122   0.00122   2.05546
    A4        2.14833  -0.00077   0.00000   0.00442   0.00447   2.15280
    A5        2.12122   0.00038   0.00000  -0.00203  -0.00206   2.11916
    A6        2.01339   0.00038   0.00000  -0.00240  -0.00242   2.01097
    A7        2.01160   0.00084   0.00000  -0.00549  -0.00557   2.00603
    A8        2.09879   0.00274   0.00000   0.00596   0.00570   2.10449
    A9        2.17186  -0.00357   0.00000  -0.00058  -0.00025   2.17161
   A10        2.04485   0.00050   0.00000   0.00383   0.00382   2.04867
   A11        2.24759  -0.00293   0.00000  -0.00435  -0.00417   2.24341
   A12        1.99054   0.00242   0.00000   0.00055   0.00038   1.99092
   A13        2.11612  -0.00064   0.00000  -0.00333  -0.00331   2.11281
   A14        2.04341   0.00032   0.00000   0.00188   0.00187   2.04528
   A15        2.12365   0.00032   0.00000   0.00145   0.00144   2.12509
   A16        2.11319   0.00002   0.00000   0.00156   0.00156   2.11475
   A17        2.05022  -0.00001   0.00000   0.00087   0.00087   2.05109
   A18        2.11976  -0.00001   0.00000  -0.00244  -0.00244   2.11732
   A19        2.36063   0.00076   0.00000  -0.02285  -0.02299   2.33764
   A20        2.07330  -0.00168   0.00000   0.04591   0.04620   2.11949
   A21        1.84844   0.00093   0.00000  -0.02314  -0.02328   1.82516
   A22        2.72734  -0.00009   0.00000   0.12402   0.12405   2.85139
   A23        2.03695   0.00019   0.00000  -0.03290  -0.03297   2.00398
   A24        1.51886  -0.00010   0.00000  -0.09108  -0.09105   1.42781
   A25        2.04951   0.00252   0.00000  -0.01169  -0.01207   2.03744
   A26        1.61970   0.00446   0.00000   0.00598   0.00560   1.62530
   A27        1.75788   0.00145   0.00000  -0.00274  -0.00280   1.75508
   A28        2.12493  -0.00211   0.00000   0.01179   0.01186   2.13679
    D1       -0.00832  -0.00002   0.00000   0.00103   0.00104  -0.00728
    D2       -3.12488   0.00010   0.00000   0.00178   0.00181  -3.12306
    D3        3.12416  -0.00004   0.00000  -0.00033  -0.00035   3.12381
    D4        0.00760   0.00007   0.00000   0.00041   0.00043   0.00803
    D5       -0.09447  -0.00006   0.00000  -0.00040  -0.00043  -0.09490
    D6        3.04209   0.00004   0.00000  -0.00074  -0.00075   3.04134
    D7        3.05582  -0.00004   0.00000   0.00091   0.00090   3.05673
    D8       -0.09080   0.00006   0.00000   0.00058   0.00058  -0.09022
    D9        0.20658   0.00031   0.00000  -0.00177  -0.00173   0.20485
   D10       -2.89072   0.00007   0.00000   0.00100   0.00107  -2.88965
   D11       -2.95862   0.00020   0.00000  -0.00248  -0.00247  -2.96109
   D12        0.22726  -0.00004   0.00000   0.00029   0.00034   0.22760
   D13       -0.30085  -0.00050   0.00000   0.00056   0.00051  -0.30035
   D14        2.81775  -0.00066   0.00000   0.00200   0.00192   2.81967
   D15        2.79435  -0.00006   0.00000  -0.00216  -0.00226   2.79209
   D16       -0.37023  -0.00022   0.00000  -0.00071  -0.00085  -0.37108
   D17       -0.01783  -0.00106   0.00000   0.00021   0.00018  -0.01766
   D18       -3.10882  -0.00142   0.00000   0.00289   0.00273  -3.10609
   D19       -3.11086  -0.00146   0.00000   0.00336   0.00338  -3.10747
   D20        0.08134  -0.00182   0.00000   0.00603   0.00593   0.08727
   D21        0.22046   0.00017   0.00000   0.00087   0.00091   0.22138
   D22       -2.92562   0.00006   0.00000   0.00181   0.00183  -2.92380
   D23       -2.90150   0.00037   0.00000  -0.00029  -0.00023  -2.90173
   D24        0.23560   0.00027   0.00000   0.00065   0.00069   0.23628
   D25       -3.10781  -0.00019   0.00000  -0.00008  -0.00013  -3.10793
   D26        0.02155  -0.00091   0.00000   0.00569   0.00552   0.02707
   D27        0.01139  -0.00037   0.00000   0.00136   0.00129   0.01268
   D28        3.14074  -0.00109   0.00000   0.00713   0.00693  -3.13551
   D29       -0.01781   0.00010   0.00000  -0.00043  -0.00043  -0.01824
   D30        3.12902  -0.00001   0.00000  -0.00010  -0.00011   3.12890
   D31        3.12848   0.00021   0.00000  -0.00142  -0.00139   3.12709
   D32       -0.00787   0.00010   0.00000  -0.00108  -0.00107  -0.00894
   D33        0.53000  -0.00181   0.00000   0.01199   0.01203   0.54203
   D34       -1.61773  -0.00104   0.00000  -0.00124  -0.00116  -1.61889
   D35       -2.57455  -0.00209   0.00000   0.01456   0.01454  -2.56002
   D36        1.56090  -0.00132   0.00000   0.00133   0.00134   1.56224
   D37        0.77704  -0.00110   0.00000  -0.01229  -0.01203   0.76501
   D38       -2.36948  -0.00139   0.00000  -0.00860  -0.00900  -2.37849
   D39       -0.79493  -0.00576   0.00000   0.01060   0.01085  -0.78407
   D40        1.02781  -0.00157   0.00000   0.01370   0.01375   1.04156
         Item               Value     Threshold  Converged?
 Maximum Force            0.066395     0.000015     NO 
 RMS     Force            0.009642     0.000010     NO 
 Maximum Displacement     0.133340     0.000060     NO 
 RMS     Displacement     0.035018     0.000040     NO 
 Predicted change in Energy= 8.444178D-03
 GradGradGradGradGradGradGradGradGradGradGradGradGradGradGradGradGradGrad

                          Input orientation:                          
 ---------------------------------------------------------------------
 Center     Atomic      Atomic             Coordinates (Angstroms)
 Number     Number       Type             X           Y           Z
 ---------------------------------------------------------------------
      1          6           0       -5.634800   -1.691616    0.206049
      2          6           0       -4.289827   -1.767870    0.173168
      3          6           0       -3.415663   -0.598479   -0.048122
      4          6           0       -4.100333    0.723304    0.037049
      5          6           0       -5.582256    0.732836   -0.064575
      6          6           0       -6.292804   -0.408754    0.027146
      7          1           0       -1.524802   -1.601652   -0.477196
      8          1           0       -6.262849   -2.566844    0.354217
      9          1           0       -3.770788   -2.721745    0.287714
     10          6           0       -2.144048   -0.760240   -0.351131
     11          6           0       -3.570766    1.904363    0.214369
     12          1           0       -6.064123    1.696900   -0.211874
     13          1           0       -7.382918   -0.405244   -0.035228
     14          1           0       -3.437679    2.932184    0.349782
     15          8           0       -1.456674    1.919624    0.350971
     16          8           0       -0.821193    1.277270   -2.063120
     17         16           0       -0.710463    1.077115   -0.640093
 ---------------------------------------------------------------------
                    Distance matrix (angstroms):
                    1          2          3          4          5
     1  C    0.000000
     2  C    1.347534   0.000000
     3  C    2.486789   1.476688   0.000000
     4  C    2.866180   2.502076   1.491019   0.000000
     5  C    2.440076   2.824965   2.542990   1.485434   0.000000
     6  C    1.452829   2.424961   2.884372   2.467505   1.347783
     7  H    4.167373   2.845341   2.183074   3.507595   4.699258
     8  H    1.087392   2.136341   3.484652   3.949954   3.395067
     9  H    2.131284   1.091970   2.178797   3.469840   3.916587
    10  C    3.655579   2.427875   1.317189   2.485687   3.759344
    11  C    4.146247   3.742197   2.521344   1.306439   2.344435
    12  H    3.441078   3.911651   3.508550   2.205975   1.087801
    13  H    2.183778   3.386354   3.971980   3.471918   2.130369
    14  H    5.121282   4.779943   3.553083   2.327244   3.099683
    15  O    5.524382   4.653599   3.215238   2.918675   4.312954
    16  O    6.093786   5.128868   3.782847   3.933237   5.192140
    17  S    5.712348   4.644047   3.236688   3.474898   4.917735
                    6          7          8          9         10
     6  C    0.000000
     7  H    4.940770   0.000000
     8  H    2.182939   4.906315   0.000000
     9  H    3.431965   2.623766   2.497755   0.000000
    10  C    4.180767   1.052298   4.552566   2.627148   0.000000
    11  C    3.577017   4.117811   5.220972   4.631010   3.074967
    12  H    2.131479   5.617497   4.305747   5.003338   4.628598
    13  H    1.091903   5.995352   2.465509   4.303249   5.260379
    14  H    4.406552   4.989856   6.182306   5.664073   3.974765
    15  O    5.377207   3.617995   6.574779   5.186659   2.854312
    16  O    6.095114   3.361311   7.087478   5.497149   2.971919
    17  S    5.815113   2.804545   6.715361   4.965657   2.348305
                   11         12         13         14         15
    11  C    0.000000
    12  H    2.538022   0.000000
    13  H    4.464201   2.487858   0.000000
    14  H    1.045211   2.956280   5.181851   0.000000
    15  O    2.118556   4.647041   6.377660   2.224784   0.000000
    16  O    3.624963   5.575977   7.071029   3.925155   2.577653
    17  S    3.097705   5.406401   6.861844   3.443667   1.499620
                   16         17
    16  O    0.000000
    17  S    1.441294   0.000000
 Symmetry turned off by external request.
 Stoichiometry    C8H6O2S
 Framework group  C1[X(C8H6O2S)]
 Deg. of freedom    45
 Full point group                 C1      NOp   1
 Rotational constants (GHZ):           2.3120362           0.6021565           0.5247171
 Standard basis: VSTO-6G (5D, 7F)
    55 basis functions,   336 primitive gaussians,    56 cartesian basis functions
    28 alpha electrons       28 beta electrons
       nuclear repulsion energy       312.4800603353 Hartrees.
 Integral buffers will be    131072 words long.
 Regular integral format.
 Two-electron integral symmetry is turned off.
 Do NDO integrals.
 One-electron integrals computed using PRISM.
 NBasis=    55 RedAO= F EigKep=  0.00D+00  NBF=    55
 NBsUse=    55 1.00D-04 EigRej=  0.00D+00 NBFU=    55
 Initial guess from the checkpoint file:  "C:\Users\al6323\OneDrive - Imperial College London\Desktop\TSR20251114\TS_endo_unfreeze_Berny_opt+freq.chk"
 B after Tr=     0.001440   -0.040000    0.006914
         Rot=    0.999996    0.001309    0.000509    0.002463 Ang=   0.32 deg.
 Keep J ints in memory in canonical form, NReq=1858957.
 Overlap will be assumed to be unity.
 Requested convergence on RMS density matrix=1.00D-08 within  32 cycles.
 Requested convergence on MAX density matrix=1.00D-06.
 Requested convergence on             energy=1.00D-06.
 No special actions if energy rises.
 SCF Done:  E(RPM6) =  0.146567622920     A.U. after   18 cycles
            NFock= 17  Conv=0.39D-08     -V/T= 1.0014
 QCSCF skips out because SCF is already converged.
 Calling FoFJK, ICntrl=      2127 FMM=F ISym2X=0 I1Cent= 0 IOpClX= 0 NMat=1 NMatS=1 NMatT=0.
 -------------------------------------------------------------------
 Center     Atomic                   Forces (Hartrees/Bohr)
 Number     Number              X              Y              Z
 -------------------------------------------------------------------
      1        6           0.000281013    0.000031038   -0.000026108
      2        6          -0.000038834   -0.000234840    0.000028579
      3        6           0.000109243   -0.000183330   -0.000204773
      4        6          -0.001175520    0.000159020   -0.000450813
      5        6           0.000011501   -0.000561703   -0.000025139
      6        6          -0.000217853    0.000255464   -0.000026048
      7        1          -0.000117422   -0.000521752    0.000077199
      8        1          -0.000028012   -0.000028314    0.000014158
      9        1          -0.000010431    0.000006184    0.000018971
     10        6           0.032766720    0.042007771   -0.006596047
     11        6           0.057154628    0.000057613    0.004306178
     12        1           0.000044514    0.000036688   -0.000026834
     13        1           0.000022393   -0.000043686    0.000009237
     14        1          -0.000250335    0.000610347    0.000000787
     15        8          -0.057109488    0.002298490   -0.002118589
     16        8          -0.000190385    0.000471850   -0.000580569
     17       16          -0.031251732   -0.044360840    0.005599812
 -------------------------------------------------------------------
 Cartesian Forces:  Max     0.057154628 RMS     0.015604042

 GradGradGradGradGradGradGradGradGradGradGradGradGradGradGradGradGradGrad
 Berny optimization.
 FormGI is forming the generalized inverse of G from B-inverse, IUseBI=4.
 Internal  Forces:  Max     0.054858239 RMS     0.008275674
 Search for a saddle point.
 Step number   2 out of a maximum of   96
 All quantities printed in internal units (Hartrees-Bohrs-Radians)
 Swapping is turned off.
 Update second derivatives using D2CorX and points    1    2
 ITU=  0  0
     Eigenvalues ---   -0.05946  -0.00097   0.00238   0.00390   0.00443
     Eigenvalues ---    0.00659   0.00872   0.01007   0.01475   0.01917
     Eigenvalues ---    0.02141   0.02308   0.02404   0.02918   0.03037
     Eigenvalues ---    0.04531   0.05104   0.06470   0.06973   0.08910
     Eigenvalues ---    0.09732   0.10371   0.10876   0.11035   0.11107
     Eigenvalues ---    0.11634   0.13950   0.14476   0.15429   0.25656
     Eigenvalues ---    0.26004   0.26716   0.27080   0.27604   0.27950
     Eigenvalues ---    0.28784   0.32109   0.36581   0.37187   0.41820
     Eigenvalues ---    0.49576   0.65956   0.70944   0.73847   0.75544
 Eigenvectors required to have negative eigenvalues:
                          R16       R14       A22       A24       R17
   1                    0.81261   0.45160   0.21541  -0.19119  -0.15233
                          A20       A21       D39       A28       D35
   1                    0.07182  -0.06052   0.05783   0.05397   0.04395
 RFO step:  Lambda0=4.661686916D-02 Lambda=-2.50487926D-02.
 Linear search not attempted -- option 19 set.
 Maximum step size (   0.300) exceeded in Quadratic search.
    -- Step size scaled by   0.292
 Iteration  1 RMS(Cart)=  0.03288256 RMS(Int)=  0.00310245
 Iteration  2 RMS(Cart)=  0.00338993 RMS(Int)=  0.00009450
 Iteration  3 RMS(Cart)=  0.00000534 RMS(Int)=  0.00009440
 Iteration  4 RMS(Cart)=  0.00000000 RMS(Int)=  0.00009440
 Variable       Old X    -DE/DX   Delta X   Delta X   Delta X     New X
                                 (Linear)    (Quad)   (Total)
    R1        2.54647   0.00004   0.00000   0.00080   0.00079   2.54726
    R2        2.74545   0.00050   0.00000  -0.00204  -0.00207   2.74338
    R3        2.05487   0.00004   0.00000   0.00005   0.00005   2.05492
    R4        2.79054  -0.00012   0.00000  -0.00244  -0.00242   2.78811
    R5        2.06353  -0.00001   0.00000   0.00101   0.00101   2.06454
    R6        2.81762  -0.00174   0.00000   0.00622   0.00638   2.82400
    R7        2.48913  -0.00105   0.00000   0.00166   0.00182   2.49095
    R8        2.80706  -0.00015   0.00000   0.00082   0.00083   2.80789
    R9        2.46881   0.00022   0.00000  -0.01062  -0.01062   2.45820
   R10        2.54694   0.00013   0.00000   0.00061   0.00059   2.54753
   R11        2.05565   0.00002   0.00000  -0.00063  -0.00063   2.05502
   R12        2.06340  -0.00002   0.00000   0.00089   0.00089   2.06429
   R13        1.98856   0.00034   0.00000   0.00475   0.00475   1.99330
   R14        4.43765  -0.05258   0.00000  -0.10451  -0.10446   4.33319
   R15        1.97516   0.00057   0.00000  -0.00263  -0.00263   1.97253
   R16        4.00349  -0.05486   0.00000   0.22741   0.22726   4.23075
   R17        2.83387   0.00375   0.00000  -0.02974  -0.02988   2.80399
   R18        2.72365   0.00065   0.00000   0.00280   0.00280   2.72645
    A1        2.09326   0.00007   0.00000  -0.00054  -0.00053   2.09273
    A2        2.13442  -0.00003   0.00000  -0.00043  -0.00044   2.13399
    A3        2.05546  -0.00004   0.00000   0.00095   0.00095   2.05641
    A4        2.15280  -0.00067   0.00000   0.00417   0.00422   2.15702
    A5        2.11916   0.00032   0.00000  -0.00193  -0.00195   2.11721
    A6        2.01097   0.00035   0.00000  -0.00226  -0.00228   2.00868
    A7        2.00603   0.00069   0.00000  -0.00546  -0.00555   2.00049
    A8        2.10449   0.00189   0.00000   0.00406   0.00382   2.10831
    A9        2.17161  -0.00257   0.00000   0.00125   0.00157   2.17319
   A10        2.04867   0.00025   0.00000   0.00322   0.00322   2.05189
   A11        2.24341  -0.00284   0.00000  -0.00723  -0.00711   2.23630
   A12        1.99092   0.00259   0.00000   0.00404   0.00392   1.99484
   A13        2.11281  -0.00037   0.00000  -0.00240  -0.00238   2.11042
   A14        2.04528   0.00013   0.00000   0.00101   0.00100   2.04628
   A15        2.12509   0.00024   0.00000   0.00139   0.00138   2.12648
   A16        2.11475  -0.00006   0.00000   0.00101   0.00100   2.11576
   A17        2.05109  -0.00002   0.00000   0.00084   0.00085   2.05194
   A18        2.11732   0.00007   0.00000  -0.00185  -0.00185   2.11548
   A19        2.33764   0.00003   0.00000  -0.02462  -0.02477   2.31286
   A20        2.11949  -0.00099   0.00000   0.04682   0.04712   2.16661
   A21        1.82516   0.00098   0.00000  -0.02223  -0.02238   1.80278
   A22        2.85139  -0.00032   0.00000   0.11654   0.11660   2.96799
   A23        2.00398   0.00000   0.00000  -0.02800  -0.02811   1.97587
   A24        1.42781   0.00032   0.00000  -0.08854  -0.08848   1.33933
   A25        2.03744   0.00132   0.00000  -0.02076  -0.02114   2.01630
   A26        1.62530   0.00424   0.00000   0.01051   0.01032   1.63562
   A27        1.75508   0.00118   0.00000  -0.00318  -0.00326   1.75182
   A28        2.13679  -0.00211   0.00000   0.00613   0.00615   2.14294
    D1       -0.00728   0.00000   0.00000   0.00104   0.00104  -0.00624
    D2       -3.12306   0.00012   0.00000   0.00177   0.00178  -3.12129
    D3        3.12381  -0.00004   0.00000  -0.00029  -0.00030   3.12351
    D4        0.00803   0.00007   0.00000   0.00043   0.00044   0.00846
    D5       -0.09490  -0.00008   0.00000  -0.00049  -0.00051  -0.09540
    D6        3.04134   0.00000   0.00000  -0.00070  -0.00070   3.04064
    D7        3.05673  -0.00004   0.00000   0.00079   0.00079   3.05751
    D8       -0.09022   0.00005   0.00000   0.00059   0.00059  -0.08963
    D9        0.20485   0.00028   0.00000  -0.00155  -0.00153   0.20332
   D10       -2.88965   0.00016   0.00000   0.00179   0.00182  -2.88783
   D11       -2.96109   0.00018   0.00000  -0.00223  -0.00223  -2.96332
   D12        0.22760   0.00005   0.00000   0.00111   0.00112   0.22871
   D13       -0.30035  -0.00046   0.00000   0.00028   0.00025  -0.30009
   D14        2.81967  -0.00056   0.00000   0.00206   0.00200   2.82167
   D15        2.79209  -0.00019   0.00000  -0.00314  -0.00318   2.78891
   D16       -0.37108  -0.00028   0.00000  -0.00135  -0.00143  -0.37251
   D17       -0.01766  -0.00081   0.00000   0.00183   0.00180  -0.01585
   D18       -3.10609  -0.00120   0.00000   0.00328   0.00319  -3.10290
   D19       -3.10747  -0.00106   0.00000   0.00568   0.00568  -3.10179
   D20        0.08727  -0.00145   0.00000   0.00713   0.00707   0.09434
   D21        0.22138   0.00019   0.00000   0.00114   0.00116   0.22254
   D22       -2.92380   0.00008   0.00000   0.00180   0.00181  -2.92199
   D23       -2.90173   0.00034   0.00000  -0.00025  -0.00021  -2.90194
   D24        0.23628   0.00022   0.00000   0.00041   0.00043   0.23672
   D25       -3.10793  -0.00021   0.00000   0.00072   0.00073  -3.10720
   D26        0.02707  -0.00103   0.00000   0.00306   0.00302   0.03009
   D27        0.01268  -0.00032   0.00000   0.00245   0.00243   0.01510
   D28       -3.13551  -0.00115   0.00000   0.00479   0.00472  -3.13079
   D29       -0.01824   0.00005   0.00000  -0.00057  -0.00056  -0.01881
   D30        3.12890  -0.00004   0.00000  -0.00036  -0.00037   3.12853
   D31        3.12709   0.00017   0.00000  -0.00126  -0.00124   3.12586
   D32       -0.00894   0.00008   0.00000  -0.00105  -0.00104  -0.00999
   D33        0.54203  -0.00135   0.00000   0.01292   0.01293   0.55496
   D34       -1.61889  -0.00050   0.00000   0.00444   0.00448  -1.61442
   D35       -2.56002  -0.00163   0.00000   0.01471   0.01468  -2.54533
   D36        1.56224  -0.00078   0.00000   0.00623   0.00623   1.56847
   D37        0.76501  -0.00148   0.00000  -0.01429  -0.01414   0.75087
   D38       -2.37849  -0.00172   0.00000  -0.01290  -0.01300  -2.39148
   D39       -0.78407  -0.00465   0.00000   0.01380   0.01400  -0.77007
   D40        1.04156  -0.00086   0.00000   0.01838   0.01846   1.06002
         Item               Value     Threshold  Converged?
 Maximum Force            0.054858     0.000015     NO 
 RMS     Force            0.008276     0.000010     NO 
 Maximum Displacement     0.139901     0.000060     NO 
 RMS     Displacement     0.034988     0.000040     NO 
 Predicted change in Energy= 6.326537D-03
 GradGradGradGradGradGradGradGradGradGradGradGradGradGradGradGradGradGrad

                          Input orientation:                          
 ---------------------------------------------------------------------
 Center     Atomic      Atomic             Coordinates (Angstroms)
 Number     Number       Type             X           Y           Z
 ---------------------------------------------------------------------
      1          6           0       -5.630670   -1.695428    0.202880
      2          6           0       -4.284234   -1.750633    0.170656
      3          6           0       -3.423959   -0.571829   -0.046531
      4          6           0       -4.132917    0.740803    0.040604
      5          6           0       -5.615088    0.729989   -0.063640
      6          6           0       -6.307348   -0.423348    0.025538
      7          1           0       -1.536542   -1.562769   -0.476827
      8          1           0       -6.244713   -2.581040    0.348210
      9          1           0       -3.752070   -2.698165    0.282710
     10          6           0       -2.149212   -0.713450   -0.350655
     11          6           0       -3.617565    1.921685    0.219673
     12          1           0       -6.110764    1.686650   -0.210931
     13          1           0       -7.397787   -0.435367   -0.038349
     14          1           0       -3.375502    2.927133    0.361227
     15          8           0       -1.382641    1.898530    0.349631
     16          8           0       -0.807459    1.233990   -2.064711
     17         16           0       -0.693517    1.034404   -0.640357
 ---------------------------------------------------------------------
                    Distance matrix (angstroms):
                    1          2          3          4          5
     1  C    0.000000
     2  C    1.347952   0.000000
     3  C    2.488826   1.475406   0.000000
     4  C    2.864405   2.499412   1.494395   0.000000
     5  C    2.440066   2.824810   2.548739   1.485872   0.000000
     6  C    1.451734   2.423992   2.888109   2.466500   1.348095
     7  H    4.152286   2.829193   2.174732   3.509322   4.697021
     8  H    1.087418   2.136488   3.485600   3.948284   3.395432
     9  H    2.130960   1.092507   2.176548   3.468452   3.917018
    10  C    3.659403   2.430192   1.318153   2.490587   3.765394
    11  C    4.139611   3.732662   2.515146   1.300821   2.343183
    12  H    3.440957   3.911104   3.513784   2.206757   1.087469
    13  H    2.183723   3.386417   3.976179   3.471165   2.129955
    14  H    5.145767   4.769025   3.522974   2.335918   3.166023
    15  O    5.566311   4.665583   3.229024   2.999975   4.410203
    16  O    6.081680   5.098314   3.765648   3.966644   5.231788
    17  S    5.704254   4.615996   3.223030   3.518435   4.964588
                    6          7          8          9         10
     6  C    0.000000
     7  H    4.930643   0.000000
     8  H    2.182585   4.887170   0.000000
     9  H    3.430798   2.602803   2.496252   0.000000
    10  C    4.185185   1.054811   4.555155   2.628574   0.000000
    11  C    3.573765   4.117910   5.214687   4.622237   3.070060
    12  H    2.132288   5.617200   4.306247   5.003371   4.633994
    13  H    1.092375   5.984771   2.466358   4.302857   5.265207
    14  H    4.464765   4.923751   6.210677   5.638434   3.906969
    15  O    5.454254   3.561925   6.611074   5.171874   2.810778
    16  O    6.112666   3.297697   7.066851   5.444535   2.920756
    17  S    5.838112   2.735460   6.698095   4.913132   2.293026
                   11         12         13         14         15
    11  C    0.000000
    12  H    2.541004   0.000000
    13  H    4.462325   2.487804   0.000000
    14  H    1.043819   3.057420   5.257836   0.000000
    15  O    2.238819   4.765949   6.463713   2.242689   0.000000
    16  O    3.686195   5.636173   7.094034   3.917493   2.569338
    17  S    3.174425   5.473244   6.889839   3.432002   1.483807
                   16         17
    16  O    0.000000
    17  S    1.442776   0.000000
 Symmetry turned off by external request.
 Stoichiometry    C8H6O2S
 Framework group  C1[X(C8H6O2S)]
 Deg. of freedom    45
 Full point group                 C1      NOp   1
 Rotational constants (GHZ):           2.3146702           0.5975004           0.5216997
 Standard basis: VSTO-6G (5D, 7F)
    55 basis functions,   336 primitive gaussians,    56 cartesian basis functions
    28 alpha electrons       28 beta electrons
       nuclear repulsion energy       312.1623595658 Hartrees.
 Integral buffers will be    131072 words long.
 Regular integral format.
 Two-electron integral symmetry is turned off.
 Do NDO integrals.
 One-electron integrals computed using PRISM.
 NBasis=    55 RedAO= F EigKep=  0.00D+00  NBF=    55
 NBsUse=    55 1.00D-04 EigRej=  0.00D+00 NBFU=    55
 Initial guess from the checkpoint file:  "C:\Users\al6323\OneDrive - Imperial College London\Desktop\TSR20251114\TS_endo_unfreeze_Berny_opt+freq.chk"
 B after Tr=     0.000923   -0.042381    0.006203
         Rot=    0.999996    0.001192    0.000398    0.002634 Ang=   0.33 deg.
 Keep J ints in memory in canonical form, NReq=1858957.
 Overlap will be assumed to be unity.
 Requested convergence on RMS density matrix=1.00D-08 within  32 cycles.
 Requested convergence on MAX density matrix=1.00D-06.
 Requested convergence on             energy=1.00D-06.
 No special actions if energy rises.
 SCF Done:  E(RPM6) =  0.153093934817     A.U. after   18 cycles
            NFock= 17  Conv=0.29D-08     -V/T= 1.0014
 QCSCF skips out because SCF is already converged.
 Calling FoFJK, ICntrl=      2127 FMM=F ISym2X=0 I1Cent= 0 IOpClX= 0 NMat=1 NMatS=1 NMatT=0.
 -------------------------------------------------------------------
 Center     Atomic                   Forces (Hartrees/Bohr)
 Number     Number              X              Y              Z
 -------------------------------------------------------------------
      1        6           0.000567390    0.000019006   -0.000058201
      2        6          -0.000135662   -0.000426518    0.000081084
      3        6           0.000388023   -0.000297351   -0.000460685
      4        6          -0.002914599    0.000095899   -0.000953205
      5        6           0.000044315   -0.001186874   -0.000059196
      6        6          -0.000464381    0.000526134   -0.000055864
      7        1          -0.000159201   -0.000996180    0.000173527
      8        1          -0.000046720   -0.000056477    0.000029480
      9        1          -0.000014386    0.000013777    0.000052416
     10        6           0.029985575    0.036152510   -0.005936353
     11        6           0.048524101   -0.001319630    0.003815236
     12        1           0.000084742    0.000063892   -0.000048407
     13        1           0.000044330   -0.000082891    0.000017038
     14        1          -0.000385619    0.001492507    0.000040994
     15        8          -0.047595787    0.006082038    0.000853050
     16        8          -0.000361035    0.000888031   -0.001165893
     17       16          -0.027561086   -0.040967873    0.003674979
 -------------------------------------------------------------------
 Cartesian Forces:  Max     0.048524101 RMS     0.013565289

 GradGradGradGradGradGradGradGradGradGradGradGradGradGradGradGradGradGrad
 Berny optimization.
 FormGI is forming the generalized inverse of G from B-inverse, IUseBI=4.
 Internal  Forces:  Max     0.045937299 RMS     0.007039998
 Search for a saddle point.
 Step number   3 out of a maximum of   96
 All quantities printed in internal units (Hartrees-Bohrs-Radians)
 Swapping is turned off.
 Update second derivatives using D2CorX and points    2    3
 ITU=  0  0  0
     Eigenvalues ---   -0.05809   0.00108   0.00290   0.00390   0.00462
     Eigenvalues ---    0.00659   0.00869   0.01007   0.01475   0.01916
     Eigenvalues ---    0.02140   0.02308   0.02401   0.02918   0.03036
     Eigenvalues ---    0.04583   0.05106   0.06479   0.06982   0.09001
     Eigenvalues ---    0.09728   0.10371   0.10876   0.11035   0.11108
     Eigenvalues ---    0.11643   0.13952   0.14478   0.15431   0.25660
     Eigenvalues ---    0.26005   0.26727   0.27087   0.27623   0.27950
     Eigenvalues ---    0.28845   0.32270   0.36582   0.37188   0.41820
     Eigenvalues ---    0.49591   0.65956   0.70950   0.73897   0.75553
 Eigenvectors required to have negative eigenvalues:
                          R16       R14       A22       A24       R17
   1                    0.79918   0.48452   0.20336  -0.19315  -0.13870
                          A20       A21       D39       A28       D35
   1                    0.06751  -0.06099   0.05817   0.05393   0.04590
 RFO step:  Lambda0=3.807246836D-02 Lambda=-1.96432439D-02.
 Linear search not attempted -- option 19 set.
 Maximum step size (   0.300) exceeded in Quadratic search.
    -- Step size scaled by   0.276
 Iteration  1 RMS(Cart)=  0.03272632 RMS(Int)=  0.00335415
 Iteration  2 RMS(Cart)=  0.00338924 RMS(Int)=  0.00008719
 Iteration  3 RMS(Cart)=  0.00001337 RMS(Int)=  0.00008199
 Iteration  4 RMS(Cart)=  0.00000001 RMS(Int)=  0.00008199
 Variable       Old X    -DE/DX   Delta X   Delta X   Delta X     New X
                                 (Linear)    (Quad)   (Total)
    R1        2.54726  -0.00013   0.00000   0.00033   0.00033   2.54759
    R2        2.74338   0.00057   0.00000  -0.00122  -0.00124   2.74214
    R3        2.05492   0.00008   0.00000   0.00031   0.00031   2.05524
    R4        2.78811   0.00002   0.00000  -0.00174  -0.00172   2.78639
    R5        2.06454  -0.00001   0.00000   0.00090   0.00090   2.06544
    R6        2.82400  -0.00088   0.00000   0.00767   0.00774   2.83174
    R7        2.49095  -0.00072   0.00000   0.00180   0.00189   2.49284
    R8        2.80789  -0.00009   0.00000  -0.00071  -0.00070   2.80719
    R9        2.45820   0.00165   0.00000  -0.00844  -0.00848   2.44972
   R10        2.54753   0.00001   0.00000   0.00030   0.00028   2.54781
   R11        2.05502   0.00002   0.00000  -0.00032  -0.00032   2.05470
   R12        2.06429  -0.00004   0.00000   0.00063   0.00063   2.06492
   R13        1.99330   0.00069   0.00000   0.00650   0.00650   1.99980
   R14        4.33319  -0.04594   0.00000  -0.11628  -0.11623   4.21696
   R15        1.97253   0.00135   0.00000   0.00170   0.00170   1.97423
   R16        4.23075  -0.04498   0.00000   0.22823   0.22813   4.45888
   R17        2.80399   0.00660   0.00000  -0.01334  -0.01337   2.79062
   R18        2.72645   0.00130   0.00000   0.00569   0.00569   2.73214
    A1        2.09273   0.00016   0.00000   0.00001   0.00002   2.09275
    A2        2.13399  -0.00008   0.00000  -0.00057  -0.00057   2.13342
    A3        2.05641  -0.00009   0.00000   0.00054   0.00054   2.05695
    A4        2.15702  -0.00056   0.00000   0.00351   0.00356   2.16058
    A5        2.11721   0.00027   0.00000  -0.00157  -0.00159   2.11561
    A6        2.00868   0.00030   0.00000  -0.00196  -0.00198   2.00670
    A7        2.00049   0.00057   0.00000  -0.00543  -0.00550   1.99499
    A8        2.10831   0.00116   0.00000   0.00254   0.00237   2.11068
    A9        2.17319  -0.00173   0.00000   0.00272   0.00295   2.17613
   A10        2.05189  -0.00003   0.00000   0.00231   0.00233   2.05422
   A11        2.23630  -0.00291   0.00000  -0.01330  -0.01328   2.22302
   A12        1.99484   0.00293   0.00000   0.01101   0.01097   2.00581
   A13        2.11042  -0.00009   0.00000  -0.00115  -0.00114   2.10928
   A14        2.04628  -0.00006   0.00000  -0.00036  -0.00036   2.04592
   A15        2.12648   0.00015   0.00000   0.00150   0.00150   2.12797
   A16        2.11576  -0.00014   0.00000   0.00010   0.00009   2.11585
   A17        2.05194  -0.00002   0.00000   0.00079   0.00080   2.05274
   A18        2.11548   0.00016   0.00000  -0.00089  -0.00088   2.11459
   A19        2.31286  -0.00051   0.00000  -0.02732  -0.02745   2.28541
   A20        2.16661  -0.00052   0.00000   0.04605   0.04631   2.21292
   A21        1.80278   0.00105   0.00000  -0.01868  -0.01881   1.78397
   A22        2.96799  -0.00089   0.00000   0.10355   0.10361   3.07159
   A23        1.97587   0.00036   0.00000  -0.01816  -0.01828   1.95759
   A24        1.33933   0.00053   0.00000  -0.08539  -0.08533   1.25400
   A25        2.01630  -0.00019   0.00000  -0.04002  -0.04024   1.97606
   A26        1.63562   0.00420   0.00000   0.01971   0.01987   1.65549
   A27        1.75182   0.00086   0.00000  -0.00388  -0.00395   1.74787
   A28        2.14294  -0.00205   0.00000  -0.00483  -0.00490   2.13804
    D1       -0.00624   0.00002   0.00000   0.00070   0.00068  -0.00556
    D2       -3.12129   0.00014   0.00000   0.00145   0.00143  -3.11986
    D3        3.12351  -0.00005   0.00000  -0.00043  -0.00044   3.12307
    D4        0.00846   0.00007   0.00000   0.00032   0.00031   0.00877
    D5       -0.09540  -0.00011   0.00000  -0.00130  -0.00129  -0.09670
    D6        3.04064  -0.00004   0.00000  -0.00120  -0.00119   3.03945
    D7        3.05751  -0.00005   0.00000  -0.00021  -0.00022   3.05729
    D8       -0.08963   0.00003   0.00000  -0.00011  -0.00011  -0.08974
    D9        0.20332   0.00028   0.00000   0.00044   0.00044   0.20376
   D10       -2.88783   0.00026   0.00000   0.00395   0.00390  -2.88393
   D11       -2.96332   0.00017   0.00000  -0.00027  -0.00026  -2.96358
   D12        0.22871   0.00015   0.00000   0.00324   0.00320   0.23191
   D13       -0.30009  -0.00043   0.00000  -0.00216  -0.00215  -0.30224
   D14        2.82167  -0.00049   0.00000  -0.00072  -0.00076   2.82091
   D15        2.78891  -0.00032   0.00000  -0.00584  -0.00579   2.78312
   D16       -0.37251  -0.00037   0.00000  -0.00440  -0.00440  -0.37691
   D17       -0.01585  -0.00057   0.00000   0.00362   0.00360  -0.01225
   D18       -3.10290  -0.00101   0.00000   0.00259   0.00258  -3.10032
   D19       -3.10179  -0.00067   0.00000   0.00773   0.00770  -3.09409
   D20        0.09434  -0.00111   0.00000   0.00670   0.00667   0.10102
   D21        0.22254   0.00022   0.00000   0.00268   0.00266   0.22520
   D22       -2.92199   0.00009   0.00000   0.00303   0.00302  -2.91897
   D23       -2.90194   0.00033   0.00000   0.00170   0.00171  -2.90023
   D24        0.23672   0.00020   0.00000   0.00205   0.00207   0.23879
   D25       -3.10720  -0.00015   0.00000   0.00560   0.00564  -3.10156
   D26        0.03009  -0.00122   0.00000   0.00122   0.00140   0.03149
   D27        0.01510  -0.00023   0.00000   0.00693   0.00692   0.02203
   D28       -3.13079  -0.00130   0.00000   0.00255   0.00269  -3.12810
   D29       -0.01881   0.00000   0.00000  -0.00052  -0.00051  -0.01931
   D30        3.12853  -0.00008   0.00000  -0.00063  -0.00062   3.12791
   D31        3.12586   0.00014   0.00000  -0.00089  -0.00088   3.12498
   D32       -0.00999   0.00006   0.00000  -0.00099  -0.00099  -0.01098
   D33        0.55496  -0.00080   0.00000   0.02214   0.02211   0.57707
   D34       -1.61442   0.00004   0.00000   0.02270   0.02268  -1.59174
   D35       -2.54533  -0.00111   0.00000   0.02221   0.02217  -2.52317
   D36        1.56847  -0.00027   0.00000   0.02277   0.02273   1.59121
   D37        0.75087  -0.00174   0.00000  -0.01463  -0.01470   0.73617
   D38       -2.39148  -0.00193   0.00000  -0.01497  -0.01457  -2.40605
   D39       -0.77007  -0.00365   0.00000   0.01262   0.01273  -0.75735
   D40        1.06002  -0.00023   0.00000   0.02024   0.02029   1.08030
         Item               Value     Threshold  Converged?
 Maximum Force            0.045937     0.000015     NO 
 RMS     Force            0.007040     0.000010     NO 
 Maximum Displacement     0.155150     0.000060     NO 
 RMS     Displacement     0.034718     0.000040     NO 
 Predicted change in Energy= 4.346015D-03
 GradGradGradGradGradGradGradGradGradGradGradGradGradGradGradGradGradGrad

                          Input orientation:                          
 ---------------------------------------------------------------------
 Center     Atomic      Atomic             Coordinates (Angstroms)
 Number     Number       Type             X           Y           Z
 ---------------------------------------------------------------------
      1          6           0       -5.624529   -1.697826    0.199697
      2          6           0       -4.277163   -1.732374    0.170326
      3          6           0       -3.430829   -0.544182   -0.044276
      4          6           0       -4.164386    0.759535    0.043451
      5          6           0       -5.645466    0.727206   -0.066388
      6          6           0       -6.319987   -0.436943    0.020419
      7          1           0       -1.550665   -1.528279   -0.475845
      8          1           0       -6.224811   -2.593319    0.343193
      9          1           0       -3.732056   -2.673021    0.282827
     10          6           0       -2.153456   -0.667700   -0.349603
     11          6           0       -3.655710    1.937838    0.226031
     12          1           0       -6.153970    1.676567   -0.215920
     13          1           0       -7.410252   -0.465015   -0.047009
     14          1           0       -3.313877    2.914015    0.373230
     15          8           0       -1.300539    1.879987    0.357356
     16          8           0       -0.820836    1.199195   -2.065824
     17         16           0       -0.683454    0.985470   -0.642539
 ---------------------------------------------------------------------
                    Distance matrix (angstroms):
                    1          2          3          4          5
     1  C    0.000000
     2  C    1.348128   0.000000
     3  C    2.490529   1.474495   0.000000
     4  C    2.862700   2.497684   1.498492   0.000000
     5  C    2.439676   2.824504   2.553729   1.485499   0.000000
     6  C    1.451078   2.423580   2.891871   2.465502   1.348242
     7  H    4.132974   2.809446   2.165576   3.512164   4.692789
     8  H    1.087584   2.136456   3.486464   3.946749   3.395480
     9  H    2.130580   1.092985   2.174786   3.467946   3.917223
    10  C    3.662136   2.431870   1.319153   2.497064   3.770956
    11  C    4.134609   3.722870   2.506802   1.296335   2.347396
    12  H    3.440868   3.910558   3.518051   2.206052   1.087300
    13  H    2.183917   3.386691   3.980211   3.470353   2.129844
    14  H    5.161230   4.749528   3.485271   2.339638   3.226717
    15  O    5.614489   4.684487   3.252082   3.091209   4.515181
    16  O    6.049859   5.053777   3.733375   3.977647   5.243814
    17  S    5.685390   4.578446   3.200909   3.555069   5.002021
                    6          7          8          9         10
     6  C    0.000000
     7  H    4.917695   0.000000
     8  H    2.182476   4.863413   0.000000
     9  H    3.430202   2.577691   2.494759   0.000000
    10  C    4.189289   1.058249   4.556744   2.629308   0.000000
    11  C    3.574945   4.115557   5.210124   4.611841   3.062180
    12  H    2.133153   5.615070   4.306919   5.003332   4.638704
    13  H    1.092709   5.970694   2.467226   4.302697   5.269397
    14  H    4.515538   4.854258   6.229379   5.603394   3.833764
    15  O    5.538641   3.517536   6.652753   5.162142   2.778122
    16  O    6.104918   3.240339   7.027765   5.383812   2.864715
    17  S    5.850920   2.664352   6.669785   4.851271   2.231521
                   11         12         13         14         15
    11  C    0.000000
    12  H    2.550468   0.000000
    13  H    4.465965   2.488604   0.000000
    14  H    1.044720   3.153491   5.326794   0.000000
    15  O    2.359539   4.891403   6.556763   2.263404   0.000000
    16  O    3.719503   5.665011   7.089825   3.886496   2.562303
    17  S    3.239710   5.530476   6.907124   3.416167   1.476735
                   16         17
    16  O    0.000000
    17  S    1.445784   0.000000
 Symmetry turned off by external request.
 Stoichiometry    C8H6O2S
 Framework group  C1[X(C8H6O2S)]
 Deg. of freedom    45
 Full point group                 C1      NOp   1
 Rotational constants (GHZ):           2.3122749           0.5945735           0.5204148
 Standard basis: VSTO-6G (5D, 7F)
    55 basis functions,   336 primitive gaussians,    56 cartesian basis functions
    28 alpha electrons       28 beta electrons
       nuclear repulsion energy       311.9368890143 Hartrees.
 Integral buffers will be    131072 words long.
 Regular integral format.
 Two-electron integral symmetry is turned off.
 Do NDO integrals.
 One-electron integrals computed using PRISM.
 NBasis=    55 RedAO= F EigKep=  0.00D+00  NBF=    55
 NBsUse=    55 1.00D-04 EigRej=  0.00D+00 NBFU=    55
 Initial guess from the checkpoint file:  "C:\Users\al6323\OneDrive - Imperial College London\Desktop\TSR20251114\TS_endo_unfreeze_Berny_opt+freq.chk"
 B after Tr=    -0.001526   -0.043940   -0.001304
         Rot=    0.999996    0.000488   -0.000200    0.002712 Ang=   0.32 deg.
 Keep J ints in memory in canonical form, NReq=1858957.
 Overlap will be assumed to be unity.
 Requested convergence on RMS density matrix=1.00D-08 within  32 cycles.
 Requested convergence on MAX density matrix=1.00D-06.
 Requested convergence on             energy=1.00D-06.
 No special actions if energy rises.
 SCF Done:  E(RPM6) =  0.157679291381     A.U. after   19 cycles
            NFock= 18  Conv=0.95D-08     -V/T= 1.0015
 QCSCF skips out because SCF is already converged.
 Calling FoFJK, ICntrl=      2127 FMM=F ISym2X=0 I1Cent= 0 IOpClX= 0 NMat=1 NMatS=1 NMatT=0.
 -------------------------------------------------------------------
 Center     Atomic                   Forces (Hartrees/Bohr)
 Number     Number              X              Y              Z
 -------------------------------------------------------------------
      1        6           0.000806231   -0.000037631   -0.000088913
      2        6          -0.000247674   -0.000602657    0.000135806
      3        6           0.000444449   -0.000134571   -0.000682504
      4        6          -0.004473871   -0.000060204   -0.001368349
      5        6           0.000121680   -0.001625070   -0.000091629
      6        6          -0.000647795    0.000771017   -0.000082149
      7        1          -0.000256365   -0.001421482    0.000293329
      8        1          -0.000054925   -0.000067801    0.000043953
      9        1          -0.000016842    0.000021059    0.000094953
     10        6           0.027124917    0.030315601   -0.005216006
     11        6           0.042413671   -0.001992080    0.003576573
     12        1           0.000115032    0.000084488   -0.000060077
     13        1           0.000062415   -0.000111945    0.000019403
     14        1          -0.000697952    0.002117699    0.000034081
     15        8          -0.039354417    0.007453683    0.002057627
     16        8          -0.000553412    0.001198563   -0.001506381
     17       16          -0.024785141   -0.035908669    0.002840282
 -------------------------------------------------------------------
 Cartesian Forces:  Max     0.042413671 RMS     0.011762874

 GradGradGradGradGradGradGradGradGradGradGradGradGradGradGradGradGradGrad
 Berny optimization.
 FormGI is forming the generalized inverse of G from B-inverse, IUseBI=4.
 Internal  Forces:  Max     0.039320249 RMS     0.005995912
 Search for a saddle point.
 Step number   4 out of a maximum of   96
 All quantities printed in internal units (Hartrees-Bohrs-Radians)
 Swapping is turned off.
 Update second derivatives using D2CorX and points    3    4
 ITU=  0  0  0  0
     Eigenvalues ---   -0.05610   0.00165   0.00365   0.00407   0.00606
     Eigenvalues ---    0.00684   0.00872   0.01008   0.01475   0.01916
     Eigenvalues ---    0.02138   0.02307   0.02396   0.02917   0.03036
     Eigenvalues ---    0.04601   0.05121   0.06495   0.07006   0.09103
     Eigenvalues ---    0.09721   0.10372   0.10876   0.11038   0.11108
     Eigenvalues ---    0.11663   0.13954   0.14480   0.15433   0.25659
     Eigenvalues ---    0.26005   0.26737   0.27089   0.27637   0.27950
     Eigenvalues ---    0.28854   0.32299   0.36582   0.37187   0.41820
     Eigenvalues ---    0.49608   0.65957   0.70963   0.73966   0.75576
 Eigenvectors required to have negative eigenvalues:
                          R16       R14       A24       A22       R17
   1                    0.78028   0.52403  -0.18901   0.18752  -0.13377
                          A20       A21       D39       A28       A25
   1                    0.06044  -0.05706   0.05642   0.05616  -0.04899
 RFO step:  Lambda0=3.125831787D-02 Lambda=-1.36248696D-02.
[...]
 1|1|UNPC-SKCH-134-020|Freq|RPM6|ZDO|C8H6O2S1|AL6323|14-Nov-2025|0||#N 
 Geom=AllCheck Guess=TCheck SCRF=Check GenChk RPM6/ZDO Freq||Title Card
  Required||0,1|C,-5.6100238063,-1.6434194622,0.2011532482|C,-4.2859544
 713,-1.7283831752,-0.2706138002|C,-3.579623153,-0.5425160892,-0.395809
 9345|C,-4.1961651729,0.7045215395,-0.0923564845|C,-5.4877200608,0.7905
 296546,0.3818065753|C,-6.1956203893,-0.41930851,0.5331169856|H,-1.8508
 842576,-0.4286142401,-1.7521286108|H,-6.1895543852,-2.5611282891,0.311
 8275419|H,-3.8418927851,-2.6850311198,-0.5274098516|C,-2.2399432698,-0
 .1492525871,-0.7905486948|C,-3.1426560246,1.6767933182,-0.5112548578|H
 ,-5.9519697155,1.7427963051,0.6268526729|H,-7.2179126103,-0.3933878919
 ,0.9050957811|H,-3.3323258661,2.2880934489,-1.4009627198|O,-2.17215742
 11,2.0663030874,0.2605403555|O,0.095280284,0.6746782753,0.1263034161|S
 ,-1.2628624552,0.3484788158,0.5035147076||Version=EM64W-G16RevC.01|HF=
 0.0418346|RMSD=2.416e-009|RMSF=1.142e-006|ZeroPoint=0.1124942|Thermal=
 0.1214008|ETot=0.1632354|HTot=0.1641795|GTot=0.1199463|Dipole=-1.37905
 43,-0.5974566,0.2850652|DipoleDeriv=0.1647343,-0.211053,-0.0494361,-0.
 1447471,0.0635363,0.0412952,-0.0691731,0.0831431,0.0343449,-0.6597943,
 0.0820763,0.0548927,-0.2165935,-0.3839348,0.0304412,0.0390172,-0.04766
 95,-0.3544096,0.8646488,0.4897968,0.0458779,0.1074965,0.241256,-0.0138
 375,-0.2256779,-0.256926,0.270894,-0.7892617,-0.1910196,0.0165294,0.00
 90932,-0.2787144,0.0021464,0.2086448,0.1042664,-0.4327203,0.195231,0.3
 205299,-0.0013737,0.0330094,0.0792556,-0.0049923,-0.0034612,-0.0956288
 ,0.0372031,-0.4520028,-0.0382385,0.0172524,0.0342373,-0.5691589,-0.029
 5038,0.0511675,-0.0044159,-0.3185492,0.2227574,-0.0518772,-0.0789134,-
 0.0908735,0.2275851,-0.0021073,-0.0534529,0.1136361,0.3784213,0.153877
 3,0.1004377,0.0083014,0.1205154,0.2372766,-0.0216497,0.0089098,-0.0250
 791,0.1257577,0.1216637,-0.0975526,0.003709,-0.0383148,0.3155943,0.046
 4339,0.0123389,0.048179,0.1883695,-1.8247972,0.120111,0.226405,0.10208
 25,-1.552254,-0.1482508,-0.2583477,0.1809044,-1.0353872,1.6827939,0.15
 30169,0.2002807,0.1995157,1.5730641,0.3396119,0.1356174,0.648307,0.885
 1649,0.1370252,-0.0911359,-0.0059842,-0.118105,0.227045,0.0393166,-0.0
 201004,0.0349128,0.1373552,0.3365669,0.0060985,-0.0438244,-0.0114933,0
 .0903592,-0.005055,-0.0645147,-0.0137543,0.1865255,-0.0099017,-0.04434
 07,0.0236121,-0.1276952,0.1067146,-0.0915303,0.0089827,-0.1376265,0.13
 91954,-1.34368,-0.2531771,-0.4249058,0.3064199,-1.119595,0.0154586,-0.
 2944482,-0.3984977,-0.8859264,-1.185443,0.0301647,-0.2555634,-0.190414
 4,-0.4025309,-0.047934,0.4146091,0.0456493,-0.6288308,2.3856627,-0.323
 9935,0.263072,0.026033,1.1443548,-0.1498671,0.1099075,-0.2794418,1.272
 5473|Polar=142.3869393,12.3958282,106.5183078,-9.2389967,7.680687,41.4
 234835|HyperPolar=-359.6479025,-27.4797528,-51.7201274,120.3637518,194
 .2592022,23.6250709,66.6852507,-16.7397459,19.9837687,-20.6752171|PG=C
 01 [X(C8H6O2S1)]|NImag=1||0.57191031,-0.01014054,0.62000962,-0.1512855
 1,0.05188265,0.20572901,-0.27076157,-0.04767777,0.06799730,0.56490685,
 0.07520766,-0.09728910,-0.02899233,0.03531337,0.65298527,0.08040521,0.
 01363856,-0.09195686,-0.14552682,0.04054229,0.19230997,-0.05629202,-0.
 02275731,0.01925456,-0.14502830,-0.16719617,0.01327595,0.63997839,-0.1
 2749214,0.05971917,0.04933870,-0.05083211,-0.29176548,-0.00622081,0.13
 806887,0.69707628,0.01226463,0.01147327,0.00188954,0.01859218,0.031103
 94,-0.06821398,-0.13408497,0.01372673,0.19907864,-0.07442466,0.0442790
 1,0.02862251,0.08458414,0.04063720,-0.02383766,-0.10892887,0.02953461,
 0.01743750,0.73256116,0.03857266,-0.03818381,-0.01655547,-0.04859517,-
 0.08415949,0.01079151,0.11192319,-0.23207707,-0.04837051,0.01235971,0.
 53997341,0.02751745,-0.01855052,-0.01531048,-0.03064325,-0.02131928,0.
 01617239,0.01905708,-0.02348137,-0.07464134,-0.21370964,0.00833941,0.2
 2864743,0.08692584,-0.05720429,-0.03372811,-0.07948861,-0.04054494,0.0
 2305343,-0.02892739,0.12856389,0.02224119,-0.33285120,-0.03155763,0.09
 659589,0.61899440,0.04215474,-0.09086144,-0.02360784,-0.04329192,-0.02
 899286,0.01229752,0.03002709,0.04526838,-0.00863104,0.08532020,-0.0900
 3048,-0.03206930,-0.00434219,0.60135933,-0.02606542,0.01228266,0.01557
 220,0.02478714,0.01260987,-0.00915069,0.01408203,-0.04244094,-0.001726
 17,0.10719620,0.00924685,-0.09866556,-0.17307243,0.03935165,0.20874313
 ,-0.13319992,0.14155127,0.03794736,-0.02880749,0.03198720,0.01540428,-
 0.00577207,-0.00567641,-0.00028244,-0.05067433,-0.02454125,0.01943714,
 -0.14067589,-0.14745830,0.01414950,0.54982210,0.02008016,-0.26902408,-
 0.02906252,0.13038578,0.04501177,-0.04137242,-0.00884956,-0.11669938,-
 0.00432836,-0.12825022,0.05205143,0.04914260,-0.02502390,-0.24421253,-
 0.00609046,0.00528354,0.63577447,0.02734556,-0.07210167,-0.08354795,0.
 02404184,-0.00815029,-0.00263166,-0.00064005,-0.00744946,-0.00482598,0
 .00931111,0.01250546,0.00418887,0.02442855,0.03788325,-0.07098663,-0.1
 4892970,0.04483008,0.19905977,-0.00066331,0.00031478,-0.00030681,0.000
 52151,0.00077152,-0.00015799,-0.02052806,0.00012706,0.02628175,-0.0019
 3699,-0.00036072,-0.00028643,-0.00025016,0.00033059,-0.00062078,0.0001
 8330,-0.00030135,-0.00014018,0.07407837,0.00034717,-0.00001259,-0.0004
 0408,-0.00073961,-0.00132229,-0.00066567,0.00031924,0.00888974,0.00487
 645,-0.00053766,0.00141155,0.00085846,0.00069594,-0.00011886,0.0003381
 4,-0.00035822,-0.00012524,0.00012023,-0.01521249,0.03897355,-0.0002652
 9,-0.00002860,0.00023539,-0.00009688,0.00008165,-0.00019380,0.01589729
 ,-0.00164073,-0.00971767,-0.00130259,-0.00056877,-0.00006484,0.0002911
 0,0.00017429,-0.00002597,-0.00013783,-0.00039102,-0.00006277,-0.078328
 01,0.06003697,0.22991682,-0.08660739,-0.08228931,0.00704212,-0.0294438
 1,-0.02358582,0.01019318,-0.00236166,0.00053308,0.00281763,0.00078670,
 0.00025626,-0.00018070,-0.00036770,0.00079984,0.00216266,0.00675895,0.
 00642123,0.00039837,-0.00000310,0.00005459,0.00002668,0.11207007,-0.08
 201302,-0.16457592,0.01645642,-0.00968906,-0.00081205,0.00270894,-0.00
 033452,-0.00027650,-0.00052629,0.00081626,0.00090023,-0.00024642,0.000
 74170,-0.00252056,-0.00114933,-0.00766663,-0.03989009,-0.00198123,-0.0
 0007288,0.00003727,0.00009871,0.09762730,0.20749161,0.00726867,0.01641
 540,-0.04386355,0.01130793,0.00751504,0.00291526,0.00249534,-0.0005942
 3,0.00468968,0.00017963,-0.00027540,0.00014001,0.00216845,-0.00109352,
 0.00474446,-0.00104801,-0.00682129,0.00568030,0.00004647,0.00004354,0.
 00002138,-0.02117066,-0.01563637,0.02963807,-0.02339051,0.02548486,0.0
 1253834,-0.06636147,0.06652990,0.01595973,0.00851891,-0.01149364,-0.00
 206299,-0.00032665,-0.00180794,0.00204748,0.00028299,-0.00009971,-0.00
 004724,-0.00216206,-0.00078689,0.00244184,0.00019583,-0.00050158,-0.00
 005722,-0.00071400,0.00028047,-0.00013230,0.08507924,0.01261249,-0.004
 62482,-0.00542909,0.06718917,-0.18049337,-0.03815738,-0.00003491,-0.03
 993678,-0.00460155,-0.00088087,-0.00243753,-0.00070847,-0.00075824,0.0
 0010044,0.00024534,-0.00037050,0.00103099,-0.00034200,-0.00021987,0.00
 018379,0.00015210,-0.00002331,0.00089725,0.00024148,-0.07925654,0.2251
 5339,0.01135554,-0.00984473,-0.00008463,0.01568406,-0.03868118,-0.0503
 7364,-0.00000058,-0.00020924,0.00615061,0.00226784,0.00000878,0.005044
 03,-0.00032266,-0.00007850,0.00018904,0.00241746,0.00005729,0.00420118
 ,0.00026126,0.00017069,0.00022018,-0.00014745,0.00011733,-0.00108634,-
 0.02993564,0.04896502,0.03893942,0.00011783,-0.00185756,0.00164786,-0.
 02189543,-0.01748623,0.00794701,-0.28516395,-0.08599186,0.06290198,-0.
 07553739,0.02779581,0.03912535,0.00419290,0.00412929,0.00323181,-0.001
 89125,-0.00302227,0.00054970,-0.05433535,0.01454901,0.06546373,0.00004
 882,0.00092156,-0.00023007,-0.00180682,0.00140447,-0.00052184,0.474337
 82,0.00907420,-0.00729519,-0.00454660,-0.04001675,-0.01170331,0.009331
 76,-0.02338562,-0.04616051,-0.00206563,0.05148913,0.00705382,-0.018296
 23,-0.00692717,-0.00418477,0.00076998,-0.00050807,0.01170268,0.0013232
 2,0.01730981,-0.04768643,-0.04103371,-0.00065253,-0.00011522,0.0005002
 8,0.00177755,0.00110865,-0.00028471,0.13998718,0.12814279,-0.00292491,
 0.00060172,0.00650844,0.00923119,0.00653443,0.00451641,0.05550370,0.01
 484530,-0.06673387,0.02015796,-0.01706199,0.01189378,0.00386664,0.0009
 4955,0.00355934,0.00105235,-0.00412822,-0.00045196,0.06608098,-0.05015
 703,-0.19076359,-0.00030406,0.00016534,-0.00064135,-0.00058742,-0.0003
 6868,-0.00219344,-0.12927841,0.14271859,0.37981163,0.00693270,-0.00252
 952,-0.00265144,-0.00848215,-0.00160525,0.00180820,0.02858119,-0.01239
 879,-0.00517997,-0.12654953,-0.06488338,0.03515273,-0.03496170,-0.0218
 5287,0.01175431,-0.00112595,0.01010879,0.00345777,0.00124344,0.0012494
 6,0.00304405,-0.00078519,-0.00104534,0.00006600,0.00096871,-0.00012962
 ,-0.00050346,-0.01854667,-0.02745996,0.00261528,0.49358189,-0.00548818
 ,0.00277334,0.00233054,0.00959952,0.00174442,-0.00205607,-0.05252814,-
 0.09145606,0.01949215,-0.11512904,-0.13063492,0.05616214,-0.00582941,0
 .00094063,0.00387805,0.00158531,-0.00510086,-0.00169347,0.00325150,-0.
 00229759,-0.00743119,-0.00015923,-0.00035783,-0.00004395,-0.00037460,-
 0.00127226,0.00003765,-0.09049969,0.10721811,-0.07077860,0.16380005,0.
 22593565,-0.00571719,0.00243575,0.00261111,0.00905368,0.00269316,0.002
 93261,-0.02568145,-0.01099223,0.02421824,0.02698138,0.03583013,-0.0763
 5412,0.01318569,0.00927558,-0.00121074,0.00335473,-0.00733552,0.003827
 95,0.00402133,-0.00703593,-0.00268681,-0.00017523,0.00022083,-0.000892
 17,-0.00048789,-0.00056124,-0.00010865,-0.07061462,0.09328662,-0.07821
 962,0.17990871,-0.19354495,0.36176578,-0.00093333,-0.00119115,0.002102
 20,0.00073318,0.00021699,-0.00018305,-0.00147232,-0.00130989,0.0027651
 2,-0.02473982,0.02583945,0.01318286,-0.06864223,0.06987575,0.01490255,
 0.00643767,-0.01186413,-0.00111860,-0.00003430,0.00000667,0.00003137,0
 .00013851,-0.00015075,-0.00026290,-0.00013969,0.00014562,-0.00028927,-
 0.00043328,0.00020662,-0.00008855,-0.00045408,0.00064268,-0.00038122,0
 .08909460,-0.00134582,-0.00225862,-0.00013364,-0.00070534,0.00028541,0
 .00021839,0.00048057,0.00043199,-0.00061894,0.01138985,-0.00447495,-0.
 00498251,0.06934924,-0.17688300,-0.03571327,0.00284674,-0.03757927,-0.
 00467320,0.00005335,-0.00001751,-0.00005036,0.00013033,-0.00041156,-0.
 00006351,0.00011133,-0.00019061,0.00002016,-0.00075966,-0.00028222,0.0
 0021446,0.00104934,0.00186372,0.00049705,-0.08181485,0.22031966,0.0017
 6952,0.00013993,0.00463471,0.00011034,0.00010999,-0.00000728,0.0029119
 7,-0.00039167,0.00521608,0.01114928,-0.01044736,0.00142920,0.01598251,
 -0.03562860,-0.05173085,-0.00028893,0.00003502,0.00594662,0.00008672,-
 0.00002155,0.00000588,-0.00023041,0.00009740,-0.00040409,-0.00029253,0
 .00006622,-0.00088174,-0.00043701,0.00013626,-0.00083517,0.00019424,0.
 00010057,-0.00128193,-0.03020166,0.04544844,0.03853944,-0.02161220,0.0
 1455353,0.01111890,0.00101841,0.00112085,0.00171691,-0.00080085,-0.000
 03087,0.00053379,0.00044780,-0.00200056,0.00133345,-0.02510336,-0.0141
 0418,0.00969938,-0.19864398,0.00411333,0.05764754,-0.00005170,0.000083
 32,0.00007028,0.00039113,0.00054354,-0.00060631,-0.00021860,0.00013850
 ,0.00002738,0.00058413,0.00078475,-0.00083890,-0.00033034,-0.00096978,
 -0.00047228,0.00028890,-0.00045419,-0.00052535,0.24370664,0.02737287,-
 0.00815097,-0.01114384,0.00075894,-0.00258740,-0.00105045,-0.00009420,
 0.00004424,-0.00000997,-0.00138665,-0.00232790,-0.00002772,-0.02717633
 ,-0.00657862,0.00869038,0.00440419,-0.03390567,-0.00107564,-0.00001073
 ,-0.00000019,-0.00001047,0.00085063,-0.00041727,-0.00020641,0.00040939
 ,0.00005436,-0.00010707,-0.00001391,0.00018183,0.00006508,-0.00019303,
 0.00001296,0.00012531,-0.00074238,-0.00029074,0.00033924,-0.00410732,0
 .05414085,0.01228344,-0.00651976,0.00006202,0.00151950,-0.00117681,0.0
 0449969,0.00042161,-0.00018912,0.00002548,0.00143084,0.00021179,0.0043
 0838,0.00860099,0.00409950,0.00246449,0.05773019,-0.00110356,-0.061039
 15,0.00014340,-0.00011094,-0.00000556,-0.00054203,-0.00008448,-0.00119
 977,0.00005460,-0.00001455,-0.00021665,-0.00092502,-0.00002057,-0.0006
 7877,0.00021588,0.00015180,0.00006694,-0.00055171,0.00024517,-0.000850
 75,-0.08035090,0.00441707,0.05241439,-0.00085623,0.00042147,0.00036271
 ,0.00123797,0.00020284,-0.00055624,-0.00371321,-0.00185839,0.00167753,
 0.00118242,-0.01650354,0.01152115,0.00117596,0.00033135,-0.00042662,-0
 .00025143,-0.00095628,-0.00041028,-0.00001810,0.00023011,-0.00032022,0
 .00006506,0.00006886,0.00001695,-0.00010862,-0.00003339,0.00011168,-0.
 00006738,0.00515930,-0.00336490,-0.03582255,0.01786461,-0.01487228,0.0
 0006953,-0.00015573,0.00011620,0.00003386,-0.00003168,-0.00000320,0.05
 051691,0.00045336,-0.00019770,-0.00017691,-0.00076163,-0.00028932,-0.0
 0047465,0.00055475,0.00108195,-0.00057243,-0.01042323,-0.00973029,0.02
 112507,0.00010178,-0.00170246,0.00054964,-0.00051673,0.00046563,-0.000
 54540,-0.00002409,-0.00029739,0.00010052,0.00005776,0.00000670,0.00010
 921,0.00000972,0.00005584,-0.00001674,0.00280252,-0.00609699,0.0056658
 6,0.02517575,-0.09514560,0.07774950,0.00016715,-0.00006000,0.00018515,
 0.00000582,-0.00005807,-0.00000495,-0.01049715,0.10063663,0.00037229,-
 0.00031827,-0.00016067,-0.00101368,-0.00014188,0.00006259,0.00374696,0
 .00260875,-0.00173888,0.00240781,0.01755252,-0.00626373,-0.00039889,-0
 .00048348,0.00028062,-0.00013516,0.00039161,-0.00000506,-0.00013658,-0
 .00004401,0.00067351,0.00005761,0.00007615,0.00002453,0.00006350,0.000
 12039,-0.00000264,0.00451814,-0.00799449,0.00526496,-0.01808433,0.0806
 0893,-0.14426177,0.00009117,-0.00015048,0.00002099,0.00008128,-0.00001
 750,0.00000048,0.03958681,-0.10166497,0.17999144,0.00180800,-0.0007175
 8,-0.00087336,-0.00165616,-0.00253747,0.00048149,0.01421965,0.01426862
 ,-0.00830081,-0.02501876,-0.02705069,-0.01943576,0.00132151,-0.0012164
 7,-0.00231526,-0.00069099,0.00091136,0.00164741,-0.00214209,0.00015202
 ,0.00271760,0.00027405,0.00042726,-0.00012505,-0.00033690,0.00075312,-
 0.00000895,0.07985202,-0.07522269,0.05443550,-0.26624616,0.03949339,-0
 .10075379,0.00026419,-0.00054724,-0.00037099,0.00063880,-0.00009945,-0
 .00010235,-0.01267343,-0.00837554,-0.02955788,0.23701069,0.00086708,-0
 .00029171,-0.00035183,-0.00180511,-0.00068631,0.00059762,0.00417858,-0
 .00176304,-0.00020312,-0.02686208,-0.00406443,-0.00895381,-0.00070606,
 -0.00185116,-0.00081069,-0.00095316,0.00104901,0.00126502,0.00044154,-
 0.00281894,0.00231100,-0.00005101,0.00003416,-0.00004088,0.00008917,0.
 00026199,-0.00000521,-0.01859610,-0.03070150,-0.03692961,-0.12080107,-
 0.11257144,-0.09935454,-0.00007846,-0.00055834,-0.00026093,0.00032648,
 -0.00012471,-0.00005930,0.00546308,0.01665227,0.01361485,0.12622837,0.
 19135326,0.00248518,-0.00110920,-0.00124511,-0.00384163,-0.00181740,0.
 00021187,0.01588156,0.00887712,-0.00733793,0.00415831,-0.00655103,0.00
 486389,-0.00031130,-0.00042385,-0.00195916,-0.00066383,0.00261773,0.00
 065560,-0.00134621,0.00180126,0.00223101,0.00003304,0.00006754,0.00008
 353,0.00003246,0.00048045,-0.00004049,0.05301168,-0.08849686,0.0404922
 5,-0.18605825,0.03628825,-0.13058101,-0.00006786,-0.00043131,-0.000135
 98,0.00044971,-0.00002249,-0.00006166,-0.03345395,0.00082805,-0.027757
 95,0.15398565,0.10503189,0.16434747,0.00039142,-0.00028351,-0.00003474
 ,-0.00146832,-0.00147124,0.00067034,0.00349748,0.00141755,-0.00460550,
 -0.00378903,0.00121590,0.00292530,0.00083969,-0.00017836,0.00007810,-0
 .00090499,-0.00028274,0.00034897,-0.00027826,0.00072654,0.00309896,0.0
 0014055,0.00034015,-0.00007755,-0.00034355,0.00061405,-0.00002394,-0.0
 3777480,-0.00800399,-0.00619105,0.01038158,-0.00123962,-0.00080411,0.0
 0012281,-0.00026902,-0.00016987,0.00042278,-0.00003540,-0.00023258,0.0
 0054590,-0.00241288,-0.00027092,-0.02034862,0.00983971,0.00046949,0.45
 525363,0.00020696,-0.00007453,-0.00000668,-0.00040641,-0.00020709,0.00
 011423,0.00020616,0.00110443,-0.00163222,-0.00182892,0.00141849,0.0012
 5179,-0.00000004,-0.00022342,0.00018732,-0.00025632,0.00012944,0.00006
 360,0.00062830,-0.00117041,0.00103205,0.00003435,0.00005027,-0.0000052
 2,0.00003016,0.00006547,-0.00004400,-0.01561959,0.00237579,-0.00253852
 ,0.00227291,-0.00579022,-0.00236236,0.00003346,-0.00010059,-0.00002654
 ,0.00009808,-0.00001705,-0.00006261,0.00029171,-0.00090423,-0.00042087
 ,0.00375299,0.00623681,-0.00073333,0.10441419,0.03741017,-0.00033371,0
 .00007216,0.00028023,0.00042001,0.00080848,0.00012929,-0.00502534,-0.0
 0184598,-0.00166595,0.00093195,-0.00078548,0.00000428,-0.00005396,0.00
 017096,-0.00002100,0.00029253,-0.00014749,0.00000751,0.00256801,0.0007
 3254,-0.00036886,-0.00008620,-0.00008002,-0.00002836,0.00006750,-0.000
 16931,-0.00018501,-0.01665069,-0.00523192,0.01520218,-0.00322925,-0.00
 230495,-0.00446091,-0.00007003,0.00008126,-0.00003968,-0.00014870,0.00
 001364,-0.00000325,-0.00016671,0.00107848,0.00047763,0.00750078,-0.006
 55773,0.00674865,-0.09938624,-0.02237386,0.05074173,0.00065665,0.00004
 265,0.00024634,0.00038938,0.00244010,-0.00065631,-0.03581138,-0.015429
 20,-0.01299277,0.00521680,-0.00066937,-0.00364115,-0.00246781,-0.00042
 633,0.00050433,0.00159783,0.00203598,-0.00038126,0.00401880,-0.0010645
 7,-0.01013309,-0.00039080,-0.00079578,0.00010440,0.00086356,-0.0011504
 7,-0.00037161,-0.06168262,-0.04360521,-0.06937739,-0.04837898,0.035974
 74,-0.01655071,-0.00030065,0.00064102,0.00019657,-0.00077081,0.0000951
 4,0.00030677,-0.00131839,0.00368449,-0.00132754,-0.00626942,0.02241550
 ,-0.00475893,-0.40668321,-0.09385965,0.11336941,0.55132214,-0.00047235
 ,0.00034211,0.00040510,0.00127711,0.00028287,-0.00024201,-0.01057811,0
 .00651248,-0.00911117,0.00947027,-0.00468822,-0.00824618,0.00062160,0.
 00049365,-0.00194533,0.00064691,-0.00068423,0.00002086,-0.00702532,0.0
 0637073,-0.01283186,-0.00000489,-0.00004021,-0.00004481,-0.00040243,0.
 00004366,-0.00010511,0.04225513,-0.10355642,0.01020277,0.04924186,0.10
 413992,0.09907267,0.00001789,0.00020772,0.00011801,-0.00010129,0.00002
 524,0.00022101,0.00000217,-0.00441521,-0.00373593,-0.07021769,-0.06016
 079,-0.05640996,-0.10438872,-0.04029833,0.03653835,0.08966773,0.095422
 77,0.00351442,-0.00046282,-0.00134650,-0.00161158,-0.00171265,-0.00122
 535,0.00290294,0.00604685,-0.00466293,0.00661102,0.00613171,-0.0053887
 0,-0.00251857,-0.00217894,-0.00008135,-0.00030019,0.00369427,-0.000017
 13,-0.01816727,-0.01053690,-0.02941489,0.00010473,-0.00030450,0.000176
 77,0.00039786,0.00008075,0.00042778,-0.01973222,-0.08010376,-0.1267238
 7,-0.02250957,0.07881730,0.04464777,0.00013912,0.00009264,0.00037283,0
 .00026392,0.00002085,0.00021297,0.00018071,-0.00393469,-0.00660590,-0.
 05893378,0.03071106,-0.05053039,0.10420632,0.02755765,-0.06681705,0.00
 546397,-0.05391819,0.24696999||0.00000127,-0.00000189,-0.00000096,0.00
 000153,0.00000332,0.00000027,-0.00000153,-0.00000254,0.00000070,-0.000
 00258,-0.00000139,0.00000185,0.00000178,-0.00000057,-0.00000162,-0.000
 00055,0.00000222,0.00000060,0.00000009,0.00000065,0.00000044,0.0000000
 7,-0.00000005,0.00000024,-0.00000009,0.00000015,-0.00000028,0.00000005
 ,-0.00000223,-0.00000067,-0.00000007,0.00000234,-0.00000051,0.00000013
 ,-0.00000006,0.00000019,-0.00000014,0.00000005,-0.00000018,-0.00000010
 ,0.00000036,0.00000031,-0.00000016,0.00000033,-0.00000071,-0.00000041,
 -0.00000022,0.00000012,0.00000071,-0.00000048,0.00000017|||@
 The archive entry for this job was punched.


0EVERYBODY IS IGNORANT, ONLY ON DIFFERENT SUBJECTS.
0          WILL ROGERS
 Job cpu time:       0 days  0 hours  0 minutes  6.0 seconds.
 Elapsed time:       0 days  0 hours  0 minutes  4.0 seconds.
 File lengths (MBytes):  RWF=     27 Int=      0 D2E=      0 Chk=      2 Scr=      1
 Normal termination of Gaussian 16 at Fri Nov 14 22:32:25 2025.
