 Default is to use a total of   8 processors:
                                8 via shared-memory
                                1 via Linda
 Entering Link 1 = C:\G16W\l1.exe PID=     23516.
  
 Copyright (c) 1988-2019, Gaussian, Inc.  All Rights Reserved.
  
 This is part of the Gaussian(R) 16 program.  It is based on
 the Gaussian(R) 09 system (copyright 2009, Gaussian, Inc.),
 the Gaussian(R) 03 system (copyright 2003, Gaussian, Inc.),
 the Gaussian(R) 98 system (copyright 1998, Gaussian, Inc.),
 the Gaussian(R) 94 system (copyright 1995, Gaussian, Inc.),
 the Gaussian 92(TM) system (copyright 1992, Gaussian, Inc.),
 the Gaussian 90(TM) system (copyright 1990, Gaussian, Inc.),
 the Gaussian 88(TM) system (copyright 1988, Gaussian, Inc.),
 the Gaussian 86(TM) system (copyright 1986, Carnegie Mellon
 University), and the Gaussian 82(TM) system (copyright 1983,
 Carnegie Mellon University). Gaussian is a federally registered
 trademark of Gaussian, Inc.
  
 This software contains proprietary and confidential information,
 including trade secrets, belonging to Gaussian, Inc.
  
 This software is provided under written license and may be
 used, copied, transmitted, or stored only in accord with that
 written license.
  
 The following legend is applicable only to US Government
 contracts under FAR:
  
                    RESTRICTED RIGHTS LEGEND
  
 Use, reproduction and disclosure by the US Government is
 subject to restrictions as set forth in subparagraphs (a)
 and (c) of the Commercial Computer Software - Restricted
 Rights clause in FAR 52.227-19.
  
 Gaussian, Inc.
 340 Quinnipiac St., Bldg. 40, Wallingford CT 06492
  
  
 ---------------------------------------------------------------
 Warning -- This program may not be used in any manner that
 competes with the business of Gaussian, Inc. or will provide
 assistance to any competitor of Gaussian, Inc.  The licensee
 of this program is prohibited from giving any competitor of
 Gaussian, Inc. access to this program.  By using this program,
 the user acknowledges that Gaussian, Inc. is engaged in the
 business of creating and licensing software in the field of
 computational chemistry and represents and warrants to the
 licensee that it is not a competitor of Gaussian, Inc. and that
 it will not use this program in any manner prohibited above.
 ---------------------------------------------------------------
  

 Cite this work as:
 Gaussian 16, Revision C.01,
 M. J. Frisch, G. W. Trucks, H. B. Schlegel, G. E. Scuseria, 
 M. A. Robb, J. R. Cheeseman, G. Scalmani, V. Barone, 
 G. A. Petersson, H. Nakatsuji, X. Li, M. Caricato, A. V. Marenich, 
 J. Bloino, B. G. Janesko, R. Gomperts, B. Mennucci, H. P. Hratchian, 
 J. V. Ortiz, A. F. Izmaylov, J. L. Sonnenberg, D. Williams-Young, 
 F. Ding, F. Lipparini, F. Egidi, J. Goings, B. Peng, A. Petrone, 
 T. Henderson, D. Ranasinghe, V. G. Zakrzewski, J. Gao, N. Rega, 
 G. Zheng, W. Liang, M. Hada, M. Ehara, K. Toyota, R. Fukuda, 
 J. Hasegawa, M. Ishida, T. Nakajima, Y. Honda, O. Kitao, H. Nakai, 
 T. Vreven, K. Throssell, J. A. Montgomery, Jr., J. E. Peralta, 
 F. Ogliaro, M. J. Bearpark, J. J. Heyd, E. N. Brothers, K. N. Kudin, 
 V. N. Staroverov, T. A. Keith, R. Kobayashi, J. Normand, 
 K. Raghavachari, A. P. Rendell, J. C. Burant, S. S. Iyengar, 
 J. Tomasi, M. Cossi, J. M. Millam, M. Klene, C. Adamo, R. Cammi, 
 J. W. Ochterski, R. L. Martin, K. Morokuma, O. Farkas, 
 J. B. Foresman, and D. J. Fox, Gaussian, Inc., Wallingford CT, 2019.
 
 ******************************************
 Gaussian 16:  EM64W-G16RevC.01 30-May-2019
                14-Nov-2025 
 ******************************************
 %mem=6GB
 %chk=C:\Users\al6323\OneDrive - Imperial College London\Desktop\TSR20251114\TS_e
 ndo_freeze_opt+freq.chk
 %nprocshared=8
 Will use up to    8 processors via shared memory.
 Default route: MaxDisk=10GB
 ----------------------------------------------------------------------
 # opt=(calcfc,tight,modredundant,maxcycles=200,maxstep=5) freq rpm6 no
 symm geom=connectivity scf=(xqc,verytight)
 ----------------------------------------------------------------------
 1/6=200,7=10,8=5,10=4,18=120,19=15,26=1,38=1,57=2/1,3;
 2/9=110,12=2,15=1,17=6,18=5,40=1/2;
 3/5=2,25=1,41=3900000,71=2,116=1,140=1/1,2,3;
 4/35=1/1;
 5/5=2,8=3,13=1,17=3,35=1,38=5/2,8;
 8/6=4,10=90,11=11/1;
 11/6=1,8=1,9=11,15=111,16=1,31=1/1,2,10;
 10/6=1,13=1,31=1/2;
 6/7=2,8=2,9=2,10=2,28=1/1;
 7/10=1,25=1,30=1/1,2,3,16;
 1/6=200,7=10,8=5,10=4,18=20,19=15,26=1/3(2);
 2/9=110,15=1/2;
 99//99;
 2/9=110,15=1/2;
 3/5=2,25=1,41=3900000,71=1,116=1,135=20/1,2,3;
 4/5=5,16=3,35=1/1;
 5/5=2,8=3,13=1,17=3,35=1,38=5/2,8;
 7/30=1/1,2,3,16;
 1/6=200,7=10,8=5,18=20,19=15,26=1/3(-5);
 2/9=110,15=1/2;
 6/7=2,8=2,9=2,10=2,19=2,28=1/1;
 99/9=1/99;
 -------------------
 Title Card Required
 -------------------
 Symbolic Z-matrix:
 Charge =  0 Multiplicity = 1
 C                    -5.67161  -1.75125   0.13535 
 C                    -4.33389  -1.8425   -0.0306 
 C                    -3.45533  -0.57816  -0.10947 
 C                    -4.07991   0.71576  -0.00361 
 C                    -5.61175   0.75686   0.18502 
 C                    -6.34616  -0.3781    0.24921 
 H                    -1.69625  -1.79114  -0.35277 
 H                    -6.26349  -2.6411    0.18762 
 H                    -3.87726  -2.80703  -0.10848 
 C                    -2.07946  -0.79456  -0.28289 
 C                    -3.45701   2.01136  -0.05059 
 H                    -6.10359   1.70359   0.26679 
 H                    -7.40632  -0.31717   0.3805 
 H                    -4.10664   2.85585   0.04801 
 O                    -1.51022   2.4081   -0.27995 
 O                     0.12799   1.1076   -1.70323 
 S                    -0.59105   1.08303  -0.42178 
 
 The following ModRedundant input section has been read:
 B      11      15 F                                                           
 B      10      17 F                                                           
 

 GradGradGradGradGradGradGradGradGradGradGradGradGradGradGradGradGradGrad
 Berny optimization.
 Initialization pass.
                           ----------------------------
                           !    Initial Parameters    !
                           ! (Angstroms and Degrees)  !
 --------------------------                            --------------------------
 ! Name  Definition              Value          Derivative Info.                !
 --------------------------------------------------------------------------------
 ! R1    R(1,2)                  1.3511         calculate D2E/DX2 analytically  !
 ! R2    R(1,6)                  1.5341         calculate D2E/DX2 analytically  !
 ! R3    R(1,8)                  1.07           calculate D2E/DX2 analytically  !
 ! R4    R(2,3)                  1.5416         calculate D2E/DX2 analytically  !
 ! R5    R(2,9)                  1.07           calculate D2E/DX2 analytically  !
 ! R6    R(3,4)                  1.4407         calculate D2E/DX2 analytically  !
 ! R7    R(3,10)                 1.4035         calculate D2E/DX2 analytically  !
 ! R8    R(4,5)                  1.544          calculate D2E/DX2 analytically  !
 ! R9    R(4,11)                 1.4383         calculate D2E/DX2 analytically  !
 ! R10   R(5,6)                  1.3534         calculate D2E/DX2 analytically  !
 ! R11   R(5,12)                 1.07           calculate D2E/DX2 analytically  !
 ! R12   R(6,13)                 1.07           calculate D2E/DX2 analytically  !
 ! R13   R(7,10)                 1.07           calculate D2E/DX2 analytically  !
 ! R14   R(10,17)                2.4            frozen, calculate D2E/DX2 analyt!
 ! R15   R(11,14)                1.07           calculate D2E/DX2 analytically  !
 ! R16   R(11,15)                2.0            frozen, calculate D2E/DX2 analyt!
 ! R17   R(15,17)                1.6189         calculate D2E/DX2 analytically  !
 ! R18   R(16,17)                1.4696         calculate D2E/DX2 analytically  !
 ! A1    A(2,1,6)              120.3265         calculate D2E/DX2 analytically  !
 ! A2    A(2,1,8)              119.8367         calculate D2E/DX2 analytically  !
 ! A3    A(6,1,8)              119.8367         calculate D2E/DX2 analytically  !
 ! A4    A(1,2,3)              121.0077         calculate D2E/DX2 analytically  !
 ! A5    A(1,2,9)              119.4962         calculate D2E/DX2 analytically  !
 ! A6    A(3,2,9)              119.4962         calculate D2E/DX2 analytically  !
 ! A7    A(2,3,4)              119.0622         calculate D2E/DX2 analytically  !
 ! A8    A(2,3,10)             116.0098         calculate D2E/DX2 analytically  !
 ! A9    A(4,3,10)             124.928          calculate D2E/DX2 analytically  !
 ! A10   A(3,4,5)              117.5822         calculate D2E/DX2 analytically  !
 ! A11   A(3,4,11)             128.2329         calculate D2E/DX2 analytically  !
 ! A12   A(5,4,11)             114.1849         calculate D2E/DX2 analytically  !
 ! A13   A(4,5,6)              121.4571         calculate D2E/DX2 analytically  !
 ! A14   A(4,5,12)             119.2714         calculate D2E/DX2 analytically  !
 ! A15   A(6,5,12)             119.2714         calculate D2E/DX2 analytically  !
 ! A16   A(1,6,5)              120.5642         calculate D2E/DX2 analytically  !
 ! A17   A(1,6,13)             119.7179         calculate D2E/DX2 analytically  !
 ! A18   A(5,6,13)             119.7179         calculate D2E/DX2 analytically  !
 ! A19   A(3,10,7)             120.1825         calculate D2E/DX2 analytically  !
 ! A20   A(3,10,17)            119.6351         calculate D2E/DX2 analytically  !
 ! A21   A(7,10,17)            120.1825         calculate D2E/DX2 analytically  !
 ! A22   A(4,11,14)            116.4223         calculate D2E/DX2 analytically  !
 ! A23   A(4,11,15)            127.1554         calculate D2E/DX2 analytically  !
 ! A24   A(14,11,15)           116.4223         calculate D2E/DX2 analytically  !
 ! A25   A(11,15,17)           113.6003         calculate D2E/DX2 analytically  !
 ! A26   A(10,17,15)           106.4483         calculate D2E/DX2 analytically  !
 ! A27   A(10,17,16)           111.5296         calculate D2E/DX2 analytically  !
 ! A28   A(15,17,16)           109.9075         calculate D2E/DX2 analytically  !
 ! D1    D(6,1,2,3)              0.0002         calculate D2E/DX2 analytically  !
 ! D2    D(6,1,2,9)            179.9999         calculate D2E/DX2 analytically  !
 ! D3    D(8,1,2,3)           -179.9996         calculate D2E/DX2 analytically  !
 ! D4    D(8,1,2,9)              0.0001         calculate D2E/DX2 analytically  !
 ! D5    D(2,1,6,5)              0.0018         calculate D2E/DX2 analytically  !
 ! D6    D(2,1,6,13)          -179.9985         calculate D2E/DX2 analytically  !
 ! D7    D(8,1,6,5)           -179.9985         calculate D2E/DX2 analytically  !
 ! D8    D(8,1,6,13)             0.0013         calculate D2E/DX2 analytically  !
 ! D9    D(1,2,3,4)             -0.0035         calculate D2E/DX2 analytically  !
 ! D10   D(1,2,3,10)           179.9972         calculate D2E/DX2 analytically  !
 ! D11   D(9,2,3,4)            179.9968         calculate D2E/DX2 analytically  !
 ! D12   D(9,2,3,10)            -0.0025         calculate D2E/DX2 analytically  !
 ! D13   D(2,3,4,5)              0.0046         calculate D2E/DX2 analytically  !
 ! D14   D(2,3,4,11)          -179.9934         calculate D2E/DX2 analytically  !
 ! D15   D(10,3,4,5)          -179.9962         calculate D2E/DX2 analytically  !
 ! D16   D(10,3,4,11)            0.0058         calculate D2E/DX2 analytically  !
 ! D17   D(2,3,10,7)             0.0192         calculate D2E/DX2 analytically  !
 ! D18   D(2,3,10,17)         -179.9802         calculate D2E/DX2 analytically  !
 ! D19   D(4,3,10,7)          -179.98           calculate D2E/DX2 analytically  !
 ! D20   D(4,3,10,17)            0.0205         calculate D2E/DX2 analytically  !
 ! D21   D(3,4,5,6)             -0.0028         calculate D2E/DX2 analytically  !
 ! D22   D(3,4,5,12)           179.9975         calculate D2E/DX2 analytically  !
 ! D23   D(11,4,5,6)           179.9955         calculate D2E/DX2 analytically  !
 ! D24   D(11,4,5,12)           -0.0042         calculate D2E/DX2 analytically  !
 ! D25   D(3,4,11,14)          179.9906         calculate D2E/DX2 analytically  !
 ! D26   D(3,4,11,15)           -0.0086         calculate D2E/DX2 analytically  !
 ! D27   D(5,4,11,14)           -0.0075         calculate D2E/DX2 analytically  !
 ! D28   D(5,4,11,15)          179.9933         calculate D2E/DX2 analytically  !
 ! D29   D(4,5,6,1)             -0.0005         calculate D2E/DX2 analytically  !
 ! D30   D(4,5,6,13)           179.9998         calculate D2E/DX2 analytically  !
 ! D31   D(12,5,6,1)           179.9992         calculate D2E/DX2 analytically  !
 ! D32   D(12,5,6,13)           -0.0005         calculate D2E/DX2 analytically  !
 ! D33   D(3,10,17,15)          -0.0455         calculate D2E/DX2 analytically  !
 ! D34   D(3,10,17,16)        -119.9222         calculate D2E/DX2 analytically  !
 ! D35   D(7,10,17,15)         179.955          calculate D2E/DX2 analytically  !
 ! D36   D(7,10,17,16)          60.0784         calculate D2E/DX2 analytically  !
 ! D37   D(4,11,15,17)          -0.0243         calculate D2E/DX2 analytically  !
 ! D38   D(14,11,15,17)        179.9765         calculate D2E/DX2 analytically  !
 ! D39   D(11,15,17,10)          0.0384         calculate D2E/DX2 analytically  !
 ! D40   D(11,15,17,16)        120.9608         calculate D2E/DX2 analytically  !
 --------------------------------------------------------------------------------
 Trust Radius=5.00D-02 FncErr=1.00D-07 GrdErr=1.00D-07 EigMax=2.50D+02 EigMin=1.00D-04
 Number of steps in this run=    102 maximum allowed number of steps=    102.
 GradGradGradGradGradGradGradGradGradGradGradGradGradGradGradGradGradGrad

                          Input orientation:                          
 ---------------------------------------------------------------------
 Center     Atomic      Atomic             Coordinates (Angstroms)
 Number     Number       Type             X           Y           Z
 ---------------------------------------------------------------------
      1          6           0       -5.671612   -1.751246    0.135349
      2          6           0       -4.333892   -1.842498   -0.030605
      3          6           0       -3.455330   -0.578157   -0.109474
      4          6           0       -4.079912    0.715757   -0.003606
      5          6           0       -5.611751    0.756860    0.185020
      6          6           0       -6.346157   -0.378102    0.249213
      7          1           0       -1.696253   -1.791136   -0.352769
      8          1           0       -6.263494   -2.641101    0.187624
      9          1           0       -3.877264   -2.807032   -0.108478
     10          6           0       -2.079465   -0.794560   -0.282886
     11          6           0       -3.457011    2.011364   -0.050589
     12          1           0       -6.103592    1.703594    0.266792
     13          1           0       -7.406323   -0.317175    0.380499
     14          1           0       -4.106640    2.855853    0.048007
     15          8           0       -1.510221    2.408100   -0.279954
     16          8           0        0.127986    1.107605   -1.703231
     17         16           0       -0.591052    1.083028   -0.421785
 ---------------------------------------------------------------------
                    Distance matrix (angstroms):
                    1          2          3          4          5
     1  C    0.000000
     2  C    1.351060   0.000000
     3  C    2.519520   1.541638   0.000000
     4  C    2.939204   2.570974   1.440669   0.000000
     5  C    2.509311   2.904493   2.553263   1.543956   0.000000
     6  C    1.534112   2.504389   2.919856   2.529093   1.353370
     7  H    4.005413   2.657737   2.150550   3.476818   4.702407
     8  H    1.070000   2.099704   3.497112   4.009127   3.459901
     9  H    2.096145   1.070000   2.268460   3.530172   3.974408
    10  C    3.740814   2.498852   1.403534   2.522071   3.886243
    11  C    4.369926   3.952413   2.590191   1.438335   2.504435
    12  H    3.484222   3.974299   3.515858   2.268087   1.070000
    13  H    2.264041   3.454772   3.989803   3.504211   2.100536
    14  H    4.866428   4.704500   3.498776   2.140884   2.586485
    15  O    5.898288   5.109097   3.567947   3.089288   4.445823
    16  O    6.722257   5.604385   4.268724   4.555071   6.052528
    17  S    5.844279   4.766610   3.325833   3.532974   5.067743
                    6          7          8          9         10
     6  C    0.000000
     7  H    4.897005   0.000000
     8  H    2.265346   4.676982   0.000000
     9  H    3.481821   2.418374   2.410250   0.000000
    10  C    4.319865   1.070000   4.597521   2.704172   0.000000
    11  C    3.761195   4.201261   5.438614   4.837035   3.134454
    12  H    2.095855   5.658766   4.348358   5.044117   4.768282
    13  H    1.070000   5.942655   2.596900   4.346579   5.389192
    14  H    3.938830   5.250247   5.906608   5.669689   4.188609
    15  O    5.606176   4.203986   6.950299   5.729738   3.252856
    16  O    6.923430   3.681616   7.647166   5.823199   3.241674
    17  S    5.975481   3.080106   6.813011   5.101952   2.400000
                   11         12         13         14         15
    11  C    0.000000
    12  H    2.683252   0.000000
    13  H    4.604888   2.406979   0.000000
    14  H    1.070000   2.315898   4.589832   0.000000
    15  O    2.000000   4.679136   6.528961   2.655077   0.000000
    16  O    4.049717   6.562679   7.945926   4.904616   2.529966
    17  S    3.035345   5.589932   7.003724   3.965220   1.618890
                   16         17
    16  O    0.000000
    17  S    1.469600   0.000000
 Symmetry turned off by external request.
 Stoichiometry    C8H6O2S
 Framework group  C1[X(C8H6O2S)]
 Deg. of freedom    45
 Full point group                 C1      NOp   1
 Rotational constants (GHZ):           2.3134498           0.5488263           0.4558200
 Standard basis: VSTO-6G (5D, 7F)
    55 basis functions,   336 primitive gaussians,    56 cartesian basis functions
    28 alpha electrons       28 beta electrons
       nuclear repulsion energy       304.7261191735 Hartrees.
 Integral buffers will be    131072 words long.
 Regular integral format.
 Two-electron integral symmetry is turned off.
 Do NDO integrals.
 One-electron integrals computed using PRISM.
 NBasis=    55 RedAO= F EigKep=  0.00D+00  NBF=    55
 NBsUse=    55 1.00D-04 EigRej=  0.00D+00 NBFU=    55
 Nonelectrostatic core Hamiltonian diagonalized for initial guess.
 Keep J ints in memory in canonical form, NReq=1858957.
 Overlap will be assumed to be unity.
 Requested convergence on RMS density matrix=1.00D-08 within  32 cycles.
 Requested convergence on MAX density matrix=1.00D-06.
 Requested convergence on             energy=1.00D-06.
 No special actions if energy rises.
 SCF Done:  E(RPM6) =  0.213835419664     A.U. after   25 cycles
            NFock= 24  Conv=0.81D-08     -V/T= 1.0020
 QCSCF skips out because SCF is already converged.
 Range of M.O.s used for correlation:     1    55
 NBasis=    55 NAE=    28 NBE=    28 NFC=     0 NFV=     0
 NROrb=     55 NOA=    28 NOB=    28 NVA=    27 NVB=    27
 Symmetrizing basis deriv contribution to polar:
 IMax=3 JMax=2 DiffMx= 0.00D+00
 G2DrvN: will do    18 centers at a time, making    1 passes.
 Calling FoFCou, ICntrl=  3107 FMM=F I1Cent=   0 AccDes= 0.00D+00.
 End of G2Drv F.D. properties file   721 does not exist.
 End of G2Drv F.D. properties file   722 does not exist.
 End of G2Drv F.D. properties file   788 does not exist.
          IDoAtm=11111111111111111
          Differentiating once with respect to nuclear coordinates.
          Electric field/nuclear overlap derivatives assumed to be zero.
 Keep J ints in memory in canonical form, NReq=1860754.
          There are    54 degrees of freedom in the 1st order CPHF.  IDoFFX=5 NUNeed=    54.
 LinEq1:  Iter=  0 NonCon=    51 RMS=1.32D-02 Max=1.13D-01 NDo=    51
 AX will form    54 AO Fock derivatives at one time.
 LinEq1:  Iter=  1 NonCon=    51 RMS=5.32D-03 Max=4.31D-02 NDo=    54
 LinEq1:  Iter=  2 NonCon=    51 RMS=1.35D-03 Max=1.48D-02 NDo=    54
 LinEq1:  Iter=  3 NonCon=    51 RMS=3.67D-04 Max=5.78D-03 NDo=    54
 LinEq1:  Iter=  4 NonCon=    51 RMS=1.16D-04 Max=1.65D-03 NDo=    54
 LinEq1:  Iter=  5 NonCon=    51 RMS=4.07D-05 Max=4.10D-04 NDo=    54
 LinEq1:  Iter=  6 NonCon=    51 RMS=1.15D-05 Max=9.84D-05 NDo=    54
 LinEq1:  Iter=  7 NonCon=    51 RMS=2.45D-06 Max=2.62D-05 NDo=    54
 LinEq1:  Iter=  8 NonCon=    51 RMS=5.81D-07 Max=5.32D-06 NDo=    54
 LinEq1:  Iter=  9 NonCon=    41 RMS=1.51D-07 Max=1.18D-06 NDo=    54
 LinEq1:  Iter= 10 NonCon=    22 RMS=3.98D-08 Max=5.63D-07 NDo=    54
 LinEq1:  Iter= 11 NonCon=     2 RMS=9.83D-09 Max=1.16D-07 NDo=    22
 LinEq1:  Iter= 12 NonCon=     0 RMS=2.37D-09 Max=1.88D-08 NDo=     2
 Linear equations converged to 1.000D-08 1.000D-07 after    12 iterations.
 End of Minotr F.D. properties file   721 does not exist.
 End of Minotr F.D. properties file   722 does not exist.
 End of Minotr F.D. properties file   788 does not exist.

 **********************************************************************

            Population analysis using the SCF Density.

 **********************************************************************

 Alpha  occ. eigenvalues --   -1.13935  -1.06972  -1.01107  -0.98613  -0.97310
 Alpha  occ. eigenvalues --   -0.89049  -0.79602  -0.78158  -0.76854  -0.68534
 Alpha  occ. eigenvalues --   -0.63220  -0.59798  -0.58361  -0.56343  -0.53797
 Alpha  occ. eigenvalues --   -0.52659  -0.51575  -0.50478  -0.48962  -0.48383
 Alpha  occ. eigenvalues --   -0.45532  -0.44463  -0.42318  -0.40196  -0.39556
 Alpha  occ. eigenvalues --   -0.39099  -0.32278  -0.31339
 Alpha virt. eigenvalues --   -0.05988  -0.03983  -0.02841   0.01261   0.02657
 Alpha virt. eigenvalues --    0.03499   0.04122   0.07760   0.11286   0.12184
 Alpha virt. eigenvalues --    0.13616   0.14809   0.15567   0.17998   0.18505
 Alpha virt. eigenvalues --    0.19073   0.19119   0.19414   0.20476   0.20577
 Alpha virt. eigenvalues --    0.21286   0.21411   0.21575   0.22010   0.22198
 Alpha virt. eigenvalues --    0.23442   0.25433
          Condensed to atoms (all electrons):
               1          2          3          4          5          6
     1  C    4.222153   0.000000   0.000000   0.000000   0.000000   0.000000
     2  C    0.000000   4.074646   0.000000   0.000000   0.000000   0.000000
     3  C    0.000000   0.000000   4.120058   0.000000   0.000000   0.000000
     4  C    0.000000   0.000000   0.000000   3.931265   0.000000   0.000000
     5  C    0.000000   0.000000   0.000000   0.000000   4.230231   0.000000
     6  C    0.000000   0.000000   0.000000   0.000000   0.000000   4.037909
     7  H    0.000000   0.000000   0.000000   0.000000   0.000000   0.000000
     8  H    0.000000   0.000000   0.000000   0.000000   0.000000   0.000000
     9  H    0.000000   0.000000   0.000000   0.000000   0.000000   0.000000
    10  C    0.000000   0.000000   0.000000   0.000000   0.000000   0.000000
    11  C    0.000000   0.000000   0.000000   0.000000   0.000000   0.000000
    12  H    0.000000   0.000000   0.000000   0.000000   0.000000   0.000000
    13  H    0.000000   0.000000   0.000000   0.000000   0.000000   0.000000
    14  H    0.000000   0.000000   0.000000   0.000000   0.000000   0.000000
    15  O    0.000000   0.000000   0.000000   0.000000   0.000000   0.000000
    16  O    0.000000   0.000000   0.000000   0.000000   0.000000   0.000000
    17  S    0.000000   0.000000   0.000000   0.000000   0.000000   0.000000
               7          8          9         10         11         12
     1  C    0.000000   0.000000   0.000000   0.000000   0.000000   0.000000
     2  C    0.000000   0.000000   0.000000   0.000000   0.000000   0.000000
     3  C    0.000000   0.000000   0.000000   0.000000   0.000000   0.000000
     4  C    0.000000   0.000000   0.000000   0.000000   0.000000   0.000000
     5  C    0.000000   0.000000   0.000000   0.000000   0.000000   0.000000
     6  C    0.000000   0.000000   0.000000   0.000000   0.000000   0.000000
     7  H    0.865924   0.000000   0.000000   0.000000   0.000000   0.000000
     8  H    0.000000   0.847601   0.000000   0.000000   0.000000   0.000000
     9  H    0.000000   0.000000   0.858260   0.000000   0.000000   0.000000
    10  C    0.000000   0.000000   0.000000   4.322292   0.000000   0.000000
    11  C    0.000000   0.000000   0.000000   0.000000   3.948997   0.000000
    12  H    0.000000   0.000000   0.000000   0.000000   0.000000   0.845804
    13  H    0.000000   0.000000   0.000000   0.000000   0.000000   0.000000
    14  H    0.000000   0.000000   0.000000   0.000000   0.000000   0.000000
    15  O    0.000000   0.000000   0.000000   0.000000   0.000000   0.000000
    16  O    0.000000   0.000000   0.000000   0.000000   0.000000   0.000000
    17  S    0.000000   0.000000   0.000000   0.000000   0.000000   0.000000
              13         14         15         16         17
     1  C    0.000000   0.000000   0.000000   0.000000   0.000000
     2  C    0.000000   0.000000   0.000000   0.000000   0.000000
     3  C    0.000000   0.000000   0.000000   0.000000   0.000000
     4  C    0.000000   0.000000   0.000000   0.000000   0.000000
     5  C    0.000000   0.000000   0.000000   0.000000   0.000000
     6  C    0.000000   0.000000   0.000000   0.000000   0.000000
     7  H    0.000000   0.000000   0.000000   0.000000   0.000000
     8  H    0.000000   0.000000   0.000000   0.000000   0.000000
     9  H    0.000000   0.000000   0.000000   0.000000   0.000000
    10  C    0.000000   0.000000   0.000000   0.000000   0.000000
    11  C    0.000000   0.000000   0.000000   0.000000   0.000000
    12  H    0.000000   0.000000   0.000000   0.000000   0.000000
    13  H    0.857301   0.000000   0.000000   0.000000   0.000000
    14  H    0.000000   0.821990   0.000000   0.000000   0.000000
    15  O    0.000000   0.000000   6.614876   0.000000   0.000000
    16  O    0.000000   0.000000   0.000000   6.605134   0.000000
    17  S    0.000000   0.000000   0.000000   0.000000   4.795560
 Mulliken charges:
               1
     1  C   -0.222153
     2  C   -0.074646
     3  C   -0.120058
     4  C    0.068735
     5  C   -0.230231
     6  C   -0.037909
     7  H    0.134076
     8  H    0.152399
     9  H    0.141740
    10  C   -0.322292
    11  C    0.051003
    12  H    0.154196
    13  H    0.142699
    14  H    0.178010
    15  O   -0.614876
    16  O   -0.605134
    17  S    1.204440
 Sum of Mulliken charges =   0.00000
 Mulliken charges with hydrogens summed into heavy atoms:
               1
     1  C   -0.069754
     2  C    0.067094
     3  C   -0.120058
     4  C    0.068735
     5  C   -0.076035
     6  C    0.104790
    10  C   -0.188215
    11  C    0.229013
    15  O   -0.614876
    16  O   -0.605134
    17  S    1.204440
 APT charges:
               1
     1  C   -0.222153
     2  C   -0.074646
     3  C   -0.120058
     4  C    0.068735
     5  C   -0.230231
     6  C   -0.037909
     7  H    0.134076
     8  H    0.152399
     9  H    0.141740
    10  C   -0.322292
    11  C    0.051003
    12  H    0.154196
    13  H    0.142699
    14  H    0.178010
    15  O   -0.614876
    16  O   -0.605134
    17  S    1.204440
 Sum of APT charges =   0.00000
 APT charges with hydrogens summed into heavy atoms:
               1
     1  C   -0.069754
     2  C    0.067094
     3  C   -0.120058
     4  C    0.068735
     5  C   -0.076035
     6  C    0.104790
    10  C   -0.188215
    11  C    0.229013
    15  O   -0.614876
    16  O   -0.605134
    17  S    1.204440
 Charge=              0.0000 electrons
 Dipole moment (field-independent basis, Debye):
    X=             -3.6807    Y=             -1.5800    Z=              3.0957  Tot=              5.0623
 N-N= 3.047261191735D+02 E-N=-4.660796082914D+02  KE=-1.075751438737D+02
  Exact polarizability:       0.000       0.000       0.000       0.000       0.000       0.000
 Approx polarizability:     145.207      19.145     130.003     -27.322      -0.464      32.319
 Calling FoFJK, ICntrl=    100127 FMM=F ISym2X=0 I1Cent= 0 IOpClX= 0 NMat=1 NMatS=1 NMatT=0.
 -------------------------------------------------------------------
 Center     Atomic                   Forces (Hartrees/Bohr)
 Number     Number              X              Y              Z
 -------------------------------------------------------------------
      1        6          -0.005214857    0.047342817    0.001799989
      2        6           0.001284468    0.048110788    0.001600594
      3        6           0.058911850   -0.045371710   -0.008175329
      4        6           0.020982059    0.077095266   -0.001611628
      5        6           0.037804544   -0.017116441   -0.004604574
      6        6           0.041272306   -0.032334466   -0.005771592
      7        1           0.009628751    0.009708944   -0.001058862
      8        1          -0.009934207   -0.000775500    0.001082630
      9        1           0.010048350   -0.002922924   -0.001390599
     10        6          -0.050846028    0.053422280    0.002478939
     11        6          -0.003031756   -0.082636947   -0.001671487
     12        1           0.002594747    0.009506746   -0.000189844
     13        1          -0.007629416   -0.006522050    0.000723734
     14        1           0.032846226    0.016415551   -0.004177183
     15        8          -0.091480183   -0.048804827    0.013825329
     16        8          -0.017158921   -0.010578513    0.022329685
     17       16          -0.030077934   -0.014539014   -0.015189803
 -------------------------------------------------------------------
 Cartesian Forces:  Max     0.091480183 RMS     0.030851534
 FormGI is forming the generalized inverse of G from B-inverse, IUseBI=4.

 GradGradGradGradGradGradGradGradGradGradGradGradGradGradGradGradGradGrad
 Berny optimization.
 Internal  Forces:  Max     0.104571673 RMS     0.023496868
 Search for a local minimum.
 Step number   1 out of a maximum of  102
 All quantities printed in internal units (Hartrees-Bohrs-Radians)
 Mixed Optimization -- RFO/linear search
 Second derivative matrix not updated -- analytic derivatives used.
 ITU=  0
     Eigenvalues ---   -0.00310   0.00036   0.00347   0.00464   0.00762
     Eigenvalues ---    0.00953   0.01484   0.01700   0.02065   0.02158
     Eigenvalues ---    0.02332   0.02798   0.02988   0.03966   0.04804
     Eigenvalues ---    0.06016   0.07019   0.07622   0.09442   0.09724
     Eigenvalues ---    0.10238   0.10560   0.10617   0.11397   0.13478
     Eigenvalues ---    0.13894   0.15027   0.20888   0.23372   0.24680
     Eigenvalues ---    0.24839   0.25920   0.26641   0.28350   0.28506
     Eigenvalues ---    0.29302   0.29807   0.33843   0.43259   0.44568
     Eigenvalues ---    0.51086   0.64334   0.687911000.000001000.00000
     Eigenvalues --- 1000.000001000.000001000.000001000.000001000.00000
     Eigenvalues --- 1000.000001000.000001000.000001000.000001000.00000
     Eigenvalues --- 1000.000001000.000001000.000001000.000001000.00000
     Eigenvalues --- 1000.000001000.000001000.000001000.000001000.00000
     Eigenvalues --- 1000.000001000.000001000.000001000.000001000.00000
     Eigenvalues --- 1000.000001000.000001000.000001000.000001000.00000
     Eigenvalues --- 1000.000001000.000001000.000001000.000001000.00000
     Eigenvalues --- 1000.000001000.000001000.000001000.000001000.00000
     Eigenvalues --- 1000.00000
 RFO step:  Lambda=-9.28336465D-02 EMin=-3.09900878D-03
 Linear search not attempted -- first point.
 Maximum step size (   0.050) exceeded in Quadratic search.
    -- Step size scaled by   0.081
 Iteration  1 RMS(Cart)=  0.01259295 RMS(Int)=  0.00014827
 Iteration  2 RMS(Cart)=  0.00015722 RMS(Int)=  0.00005482
 Iteration  3 RMS(Cart)=  0.00000002 RMS(Int)=  0.00005482
 Iteration  1 RMS(Cart)=  0.00000110 RMS(Int)=  0.00000009
 Iteration  2 RMS(Cart)=  0.00000001 RMS(Int)=  0.00000009
 Variable       Old X    -DE/DX   Delta X   Delta X   Delta X     New X
                                 (Linear)    (Quad)   (Total)
    R1        2.55313  -0.00988   0.00000  -0.00055  -0.00055   2.55258
    R2        2.89905  -0.05465   0.00000  -0.01171  -0.01170   2.88735
    R3        2.02201   0.00619   0.00000   0.00197   0.00197   2.02397
    R4        2.91327  -0.04750   0.00000  -0.00831  -0.00831   2.90496
    R5        2.02201   0.00702   0.00000   0.00219   0.00219   2.02419
    R6        2.72247  -0.00454   0.00000   0.00455   0.00456   2.72703
    R7        2.65229  -0.08259   0.00000  -0.01314  -0.01313   2.63917
    R8        2.91765  -0.04946   0.00000  -0.00808  -0.00809   2.90957
    R9        2.71806  -0.10457   0.00000  -0.02066  -0.02065   2.69741
   R10        2.55750  -0.01291   0.00000  -0.00087  -0.00087   2.55663
   R11        2.02201   0.00720   0.00000   0.00205   0.00205   2.02406
   R12        2.02201   0.00728   0.00000   0.00230   0.00230   2.02431
   R13        2.02201  -0.00553   0.00000  -0.00143  -0.00143   2.02058
   R14        4.53534  -0.07042   0.00000   0.00000   0.00000   4.53534
   R15        2.02201  -0.00737   0.00000  -0.00131  -0.00131   2.02070
   R16        3.77945  -0.10007   0.00000   0.00000   0.00000   3.77945
   R17        3.05926  -0.02964   0.00000  -0.01036  -0.01038   3.04888
   R18        2.77714  -0.02804   0.00000  -0.00409  -0.00409   2.77306
    A1        2.10009   0.00017   0.00000   0.00007   0.00008   2.10017
    A2        2.09155   0.00788   0.00000   0.00196   0.00195   2.09350
    A3        2.09155  -0.00805   0.00000  -0.00203  -0.00203   2.08952
    A4        2.11198   0.00235   0.00000   0.00185   0.00185   2.11383
    A5        2.08560   0.00679   0.00000   0.00148   0.00148   2.08709
    A6        2.08560  -0.00914   0.00000  -0.00333  -0.00333   2.08227
    A7        2.07803  -0.00599   0.00000  -0.00280  -0.00281   2.07522
    A8        2.02475   0.00444   0.00000   0.00205   0.00208   2.02683
    A9        2.18041   0.00155   0.00000   0.00075   0.00073   2.18113
   A10        2.05220   0.00220   0.00000  -0.00009  -0.00010   2.05210
   A11        2.23809   0.01028   0.00000   0.00196   0.00193   2.24002
   A12        1.99290  -0.01248   0.00000  -0.00187  -0.00184   1.99106
   A13        2.11983  -0.00129   0.00000   0.00023   0.00022   2.12004
   A14        2.08168  -0.00615   0.00000  -0.00193  -0.00192   2.07976
   A15        2.08168   0.00744   0.00000   0.00170   0.00171   2.08339
   A16        2.10424   0.00256   0.00000   0.00074   0.00074   2.10499
   A17        2.08947  -0.00831   0.00000  -0.00212  -0.00212   2.08735
   A18        2.08947   0.00575   0.00000   0.00138   0.00138   2.09085
   A19        2.09758   0.01536   0.00000   0.00944   0.00947   2.10704
   A20        2.08803  -0.00535   0.00000   0.00126   0.00120   2.08922
   A21        2.09758  -0.01002   0.00000  -0.01069  -0.01067   2.08691
   A22        2.03195   0.03996   0.00000   0.02219   0.02218   2.05413
   A23        2.21928  -0.00670   0.00000  -0.00496  -0.00508   2.21420
   A24        2.03195  -0.03326   0.00000  -0.01723  -0.01724   2.01472
   A25        1.98270   0.01510   0.00000   0.00831   0.00814   1.99084
   A26        1.85787  -0.01488   0.00000  -0.00729  -0.00745   1.85043
   A27        1.94656  -0.01143   0.00000  -0.00907  -0.00902   1.93754
   A28        1.91825   0.01232   0.00000   0.01078   0.01074   1.92899
    D1        0.00000  -0.00011   0.00000   0.00008   0.00006   0.00006
    D2        3.14159   0.00000   0.00000   0.00083   0.00080  -3.14079
    D3       -3.14158  -0.00014   0.00000  -0.00042  -0.00043   3.14117
    D4        0.00000  -0.00004   0.00000   0.00033   0.00032   0.00032
    D5        0.00003  -0.00002   0.00000  -0.00218  -0.00218  -0.00215
    D6       -3.14157  -0.00004   0.00000  -0.00200  -0.00199   3.13963
    D7       -3.14157   0.00002   0.00000  -0.00168  -0.00170   3.13992
    D8        0.00002   0.00000   0.00000  -0.00150  -0.00151  -0.00149
    D9       -0.00006   0.00019   0.00000   0.00516   0.00515   0.00509
   D10        3.14154  -0.00019   0.00000   0.00737   0.00732  -3.13432
   D11        3.14154   0.00008   0.00000   0.00441   0.00441  -3.13724
   D12       -0.00004  -0.00029   0.00000   0.00662   0.00658   0.00654
   D13        0.00008  -0.00014   0.00000  -0.00789  -0.00787  -0.00779
   D14       -3.14148  -0.00001   0.00000  -0.00322  -0.00321   3.13850
   D15       -3.14153   0.00027   0.00000  -0.01032  -0.01024   3.13142
   D16        0.00010   0.00039   0.00000  -0.00564  -0.00558  -0.00548
   D17        0.00034  -0.00032   0.00000   0.00082   0.00082   0.00116
   D18       -3.14125   0.00091   0.00000  -0.00259  -0.00257   3.13937
   D19       -3.14124  -0.00072   0.00000   0.00319   0.00314  -3.13811
   D20        0.00036   0.00052   0.00000  -0.00023  -0.00025   0.00011
   D21       -0.00005   0.00002   0.00000   0.00601   0.00599   0.00594
   D22        3.14155   0.00011   0.00000   0.00519   0.00518  -3.13645
   D23        3.14151  -0.00009   0.00000   0.00198   0.00198  -3.13969
   D24       -0.00007   0.00000   0.00000   0.00117   0.00118   0.00111
   D25        3.14143  -0.00102   0.00000   0.00762   0.00777  -3.13399
   D26       -0.00015   0.00038   0.00000  -0.01065  -0.01058  -0.01073
   D27       -0.00013  -0.00090   0.00000   0.01216   0.01229   0.01216
   D28        3.14148   0.00050   0.00000  -0.00611  -0.00606   3.13542
   D29       -0.00001   0.00006   0.00000  -0.00089  -0.00088  -0.00089
   D30        3.14159   0.00008   0.00000  -0.00107  -0.00107   3.14052
   D31        3.14158  -0.00003   0.00000  -0.00008  -0.00008   3.14150
   D32       -0.00001  -0.00001   0.00000  -0.00026  -0.00026  -0.00027
   D33       -0.00079  -0.00224   0.00000   0.02257   0.02244   0.02164
   D34       -2.09304  -0.00144   0.00000   0.01916   0.01909  -2.07395
   D35        3.14081  -0.00101   0.00000   0.01915   0.01909  -3.12329
   D36        1.04857  -0.00021   0.00000   0.01574   0.01574   1.06431
   D37       -0.00042  -0.00238   0.00000   0.03453   0.03454   0.03411
   D38        3.14118  -0.00098   0.00000   0.01626   0.01655  -3.12546
   D39        0.00067   0.00252   0.00000  -0.03115  -0.03111  -0.03044
   D40        2.11116  -0.01322   0.00000  -0.04037  -0.04045   2.07072
         Item               Value     Threshold  Converged?
 Maximum Force            0.104638     0.000015     NO 
 RMS     Force            0.019629     0.000010     NO 
 Maximum Displacement     0.061838     0.000060     NO 
 RMS     Displacement     0.012598     0.000040     NO 
 Predicted change in Energy=-7.614907D-03
 GradGradGradGradGradGradGradGradGradGradGradGradGradGradGradGradGradGrad

                          Input orientation:                          
 ---------------------------------------------------------------------
 Center     Atomic      Atomic             Coordinates (Angstroms)
 Number     Number       Type             X           Y           Z
 ---------------------------------------------------------------------
      1          6           0       -5.668616   -1.746446    0.135970
      2          6           0       -4.330565   -1.838168   -0.024599
      3          6           0       -3.452075   -0.579269   -0.105436
      4          6           0       -4.078714    0.716406   -0.000410
      5          6           0       -5.607527    0.756429    0.177726
      6          6           0       -6.341140   -0.378536    0.241226
      7          1           0       -1.691397   -1.786728   -0.353788
      8          1           0       -6.262925   -2.635858    0.189562
      9          1           0       -3.871693   -2.803290   -0.097759
     10          6           0       -2.083419   -0.794598   -0.281128
     11          6           0       -3.463654    2.003740   -0.044755
     12          1           0       -6.099470    1.704825    0.253615
     13          1           0       -7.403355   -0.319468    0.366593
     14          1           0       -4.095558    2.860212    0.058075
     15          8           0       -1.513399    2.395192   -0.252773
     16          8           0        0.095263    1.105397   -1.724200
     17         16           0       -0.593734    1.081311   -0.428794
 ---------------------------------------------------------------------
                    Distance matrix (angstroms):
                    1          2          3          4          5
     1  C    0.000000
     2  C    1.350769   0.000000
     3  C    2.516671   1.537240   0.000000
     4  C    2.934625   2.567072   1.443080   0.000000
     5  C    2.503968   2.898879   2.551518   1.539677   0.000000
     6  C    1.527922   2.498720   2.916705   2.525046   1.352910
     7  H    4.007463   2.660117   2.149331   3.477044   4.699599
     8  H    1.071041   2.101473   3.495348   4.005563   3.455039
     9  H    2.097733   1.071157   2.263274   3.527122   3.969964
    10  C    3.732777   2.490886   1.396587   2.518559   3.877573
    11  C    4.354126   3.938553   2.583748   1.427409   2.490276
    12  H    3.480049   3.969789   3.514926   2.263837   1.071084
    13  H    2.258046   3.449857   3.987847   3.501565   2.101956
    14  H    4.868457   4.704980   3.502975   2.144670   2.593505
    15  O    5.879636   5.090169   3.553532   3.076175   4.430887
    16  O    6.694441   5.580428   4.247600   4.532643   6.021704
    17  S    5.836917   4.759268   3.321475   3.530121   5.060784
                    6          7          8          9         10
     6  C    0.000000
     7  H    4.894605   0.000000
     8  H    2.259267   4.681359   0.000000
     9  H    3.477429   2.419223   2.414245   0.000000
    10  C    4.309774   1.069244   4.591302   2.695624   0.000000
    11  C    3.746592   4.195718   5.423716   4.824608   3.129157
    12  H    2.097367   5.656058   4.344231   5.040789   4.760434
    13  H    1.071217   5.941235   2.587969   4.342538   5.380243
    14  H    3.945335   5.248207   5.909446   5.670066   4.185857
    15  O    5.589694   4.186925   6.932901   5.710498   3.240446
    16  O    6.891461   3.665320   7.621419   5.801713   3.230959
    17  S    5.967642   3.071829   6.807307   5.093596   2.400000
                   11         12         13         14         15
    11  C    0.000000
    12  H    2.669438   0.000000
    13  H    4.592139   2.410527   0.000000
    14  H    1.069308   2.321383   4.598594   0.000000
    15  O    2.000000   4.665306   6.514949   2.642048   0.000000
    16  O    4.036514   6.530374   7.913970   4.880457   2.533074
    17  S    3.038882   5.582793   6.997553   3.957815   1.613397
                   16         17
    16  O    0.000000
    17  S    1.467438   0.000000
 Symmetry turned off by external request.
 Stoichiometry    C8H6O2S
 Framework group  C1[X(C8H6O2S)]
 Deg. of freedom    45
 Full point group                 C1      NOp   1
 Rotational constants (GHZ):           2.3154493           0.5516319           0.4585124
 Standard basis: VSTO-6G (5D, 7F)
    55 basis functions,   336 primitive gaussians,    56 cartesian basis functions
    28 alpha electrons       28 beta electrons
       nuclear repulsion energy       305.1500328154 Hartrees.
 Integral buffers will be    131072 words long.
 Regular integral format.
 Two-electron integral symmetry is turned off.
 Do NDO integrals.
 One-electron integrals computed using PRISM.
 NBasis=    55 RedAO= F EigKep=  0.00D+00  NBF=    55
 NBsUse=    55 1.00D-04 EigRej=  0.00D+00 NBFU=    55
 Initial guess from the checkpoint file:  "C:\Users\al6323\OneDrive - Imperial College London\Desktop\TSR20251114\TS_endo_freeze_opt+freq.chk"
 B after Tr=    -0.004539   -0.005510   -0.014719
         Rot=    0.999999   -0.001130   -0.001092    0.000138 Ang=  -0.18 deg.
 Keep J ints in memory in canonical form, NReq=1858957.
 Overlap will be assumed to be unity.
 Requested convergence on RMS density matrix=1.00D-08 within  32 cycles.
 Requested convergence on MAX density matrix=1.00D-06.
 Requested convergence on             energy=1.00D-06.
 No special actions if energy rises.
 SCF Done:  E(RPM6) =  0.206224194078     A.U. after   18 cycles
            NFock= 17  Conv=0.90D-08     -V/T= 1.0019
 QCSCF skips out because SCF is already converged.
 Calling FoFJK, ICntrl=      2127 FMM=F ISym2X=0 I1Cent= 0 IOpClX= 0 NMat=1 NMatS=1 NMatT=0.
 -------------------------------------------------------------------
 Center     Atomic                   Forces (Hartrees/Bohr)
 Number     Number              X              Y              Z
 -------------------------------------------------------------------
      1        6          -0.005024769    0.044396586    0.001486841
      2        6           0.001093087    0.045193997    0.001380407
      3        6           0.055154610   -0.042763731   -0.007807199
      4        6           0.019975573    0.072234912   -0.001676887
      5        6           0.035376626   -0.015990647   -0.004012073
      6        6           0.038737194   -0.030470774   -0.005084435
      7        1           0.009467865    0.009408784   -0.001029305
      8        1          -0.009380034   -0.000748835    0.000989675
      9        1           0.009520671   -0.002774153   -0.001262764
     10        6          -0.045170764    0.053042231    0.001993731
     11        6           0.000889553   -0.076335614   -0.001439916
     12        1           0.002436214    0.008976090   -0.000205837
     13        1          -0.007230069   -0.006143261    0.000658894
     14        1           0.032050517    0.015500685   -0.003934972
     15        8          -0.091110627   -0.047045522    0.012518322
     16        8          -0.015754291   -0.010338917    0.021044093
     17       16          -0.031031357   -0.016141831   -0.013618576
 -------------------------------------------------------------------
 Cartesian Forces:  Max     0.091110627 RMS     0.029361942

 GradGradGradGradGradGradGradGradGradGradGradGradGradGradGradGradGradGrad
 Berny optimization.
 Using GEDIIS/GDIIS optimizer.
 FormGI is forming the generalized inverse of G from B-inverse, IUseBI=4.
 Internal  Forces:  Max     0.099063944 RMS     0.022478177
 Search for a local minimum.
 Step number   2 out of a maximum of  102
 All quantities printed in internal units (Hartrees-Bohrs-Radians)
 Mixed Optimization -- RFO/linear search
 Update second derivatives using D2CorX and points    1    2
 DE= -7.61D-03 DEPred=-7.61D-03 R= 1.00D+00
 TightC=F SS=  1.41D+00  RLast= 9.38D-02 DXNew= 8.4090D-02 2.8140D-01
 Trust test= 1.00D+00 RLast= 9.38D-02 DXMaxT set to 8.41D-02
 ITU=  1  0
 Use linear search instead of GDIIS.
 Linear search step of   0.100 exceeds DXMaxT=   0.084 but not scaled.
 Quartic linear search produced a step of  2.00000.
 Iteration  1 RMS(Cart)=  0.02499852 RMS(Int)=  0.00063094
 Iteration  2 RMS(Cart)=  0.00061441 RMS(Int)=  0.00032972
 Iteration  3 RMS(Cart)=  0.00000026 RMS(Int)=  0.00032972
 Iteration  1 RMS(Cart)=  0.00000675 RMS(Int)=  0.00000054
 Iteration  2 RMS(Cart)=  0.00000007 RMS(Int)=  0.00000055
 Variable       Old X    -DE/DX   Delta X   Delta X   Delta X     New X
                                 (Linear)    (Quad)   (Total)
    R1        2.55258  -0.00910  -0.00110   0.00000  -0.00107   2.55151
    R2        2.88735  -0.05124  -0.02340   0.00000  -0.02335   2.86400
    R3        2.02397   0.00588   0.00393   0.00000   0.00393   2.02791
    R4        2.90496  -0.04445  -0.01662   0.00000  -0.01664   2.88832
    R5        2.02419   0.00666   0.00437   0.00000   0.00437   2.02857
    R6        2.72703  -0.00398   0.00911   0.00000   0.00917   2.73619
    R7        2.63917  -0.07710  -0.02626   0.00000  -0.02619   2.61297
    R8        2.90957  -0.04620  -0.01618   0.00000  -0.01620   2.89337
    R9        2.69741  -0.09775  -0.04130   0.00000  -0.04123   2.65618
   R10        2.55663  -0.01192  -0.00174   0.00000  -0.00172   2.55491
   R11        2.02406   0.00681   0.00410   0.00000   0.00410   2.02815
   R12        2.02431   0.00691   0.00460   0.00000   0.00460   2.02891
   R13        2.02058  -0.00519  -0.00286   0.00000  -0.00286   2.01772
   R14        4.53534  -0.07028   0.00000   0.00000   0.00000   4.53534
   R15        2.02070  -0.00690  -0.00261   0.00000  -0.00261   2.01809
   R16        3.77945  -0.09906   0.00000   0.00000   0.00000   3.77945
   R17        3.04888  -0.02797  -0.02076   0.00000  -0.02085   3.02803
   R18        2.77306  -0.02614  -0.00817   0.00000  -0.00817   2.76488
    A1        2.10017   0.00017   0.00015   0.00000   0.00017   2.10034
    A2        2.09350   0.00742   0.00391   0.00000   0.00390   2.09740
    A3        2.08952  -0.00759  -0.00406   0.00000  -0.00407   2.08544
    A4        2.11383   0.00228   0.00369   0.00000   0.00365   2.11748
    A5        2.08709   0.00640   0.00297   0.00000   0.00299   2.09008
    A6        2.08227  -0.00868  -0.00666   0.00000  -0.00664   2.07563
    A7        2.07522  -0.00569  -0.00562   0.00000  -0.00566   2.06956
    A8        2.02683   0.00455   0.00416   0.00000   0.00432   2.03115
    A9        2.18113   0.00115   0.00145   0.00000   0.00132   2.18245
   A10        2.05210   0.00203  -0.00020   0.00000  -0.00024   2.05186
   A11        2.24002   0.00946   0.00386   0.00000   0.00370   2.24372
   A12        1.99106  -0.01148  -0.00368   0.00000  -0.00352   1.98754
   A13        2.12004  -0.00122   0.00043   0.00000   0.00037   2.12042
   A14        2.07976  -0.00580  -0.00385   0.00000  -0.00382   2.07594
   A15        2.08339   0.00702   0.00341   0.00000   0.00344   2.08683
   A16        2.10499   0.00244   0.00149   0.00000   0.00150   2.10649
   A17        2.08735  -0.00783  -0.00424   0.00000  -0.00425   2.08310
   A18        2.09085   0.00540   0.00276   0.00000   0.00275   2.09360
   A19        2.10704   0.01500   0.01893   0.00000   0.01909   2.12614
   A20        2.08922  -0.00506   0.00240   0.00000   0.00205   2.09127
   A21        2.08691  -0.00994  -0.02134   0.00000  -0.02118   2.06573
   A22        2.05413   0.03879   0.04436   0.00000   0.04425   2.09838
   A23        2.21420  -0.00653  -0.01015   0.00000  -0.01078   2.20342
   A24        2.01472  -0.03224  -0.03447   0.00000  -0.03450   1.98022
   A25        1.99084   0.01503   0.01627   0.00000   0.01521   2.00604
   A26        1.85043  -0.01398  -0.01489   0.00000  -0.01581   1.83461
   A27        1.93754  -0.01117  -0.01804   0.00000  -0.01775   1.91979
   A28        1.92899   0.01165   0.02148   0.00000   0.02119   1.95018
    D1        0.00006  -0.00015   0.00012   0.00000   0.00001   0.00007
    D2       -3.14079  -0.00003   0.00161   0.00000   0.00146  -3.13933
    D3        3.14117  -0.00017  -0.00085   0.00000  -0.00089   3.14029
    D4        0.00032  -0.00005   0.00064   0.00000   0.00056   0.00089
    D5       -0.00215  -0.00004  -0.00436   0.00000  -0.00434  -0.00649
    D6        3.13963  -0.00003  -0.00399   0.00000  -0.00395   3.13568
    D7        3.13992  -0.00002  -0.00339   0.00000  -0.00346   3.13647
    D8       -0.00149  -0.00001  -0.00302   0.00000  -0.00306  -0.00454
    D9        0.00509   0.00021   0.01031   0.00000   0.01029   0.01538
   D10       -3.13432  -0.00022   0.01464   0.00000   0.01433  -3.11999
   D11       -3.13724   0.00011   0.00882   0.00000   0.00885  -3.12838
   D12        0.00654  -0.00033   0.01316   0.00000   0.01290   0.01944
   D13       -0.00779  -0.00016  -0.01573   0.00000  -0.01561  -0.02339
   D14        3.13850  -0.00009  -0.00641   0.00000  -0.00635   3.13216
   D15        3.13142   0.00031  -0.02048   0.00000  -0.02003   3.11139
   D16       -0.00548   0.00039  -0.01116   0.00000  -0.01077  -0.01625
   D17        0.00116  -0.00043   0.00164   0.00000   0.00161   0.00277
   D18        3.13937   0.00076  -0.00514   0.00000  -0.00498   3.13439
   D19       -3.13811  -0.00088   0.00627   0.00000   0.00596  -3.13215
   D20        0.00011   0.00030  -0.00051   0.00000  -0.00063  -0.00052
   D21        0.00594   0.00002   0.01197   0.00000   0.01186   0.01780
   D22       -3.13645   0.00010   0.01037   0.00000   0.01030  -3.12615
   D23       -3.13969   0.00000   0.00396   0.00000   0.00396  -3.13573
   D24        0.00111   0.00009   0.00236   0.00000   0.00240   0.00351
   D25       -3.13399  -0.00069   0.01554   0.00000   0.01639  -3.11760
   D26       -0.01073   0.00039  -0.02117   0.00000  -0.02075  -0.03148
   D27        0.01216  -0.00065   0.02459   0.00000   0.02536   0.03752
   D28        3.13542   0.00043  -0.01211   0.00000  -0.01178   3.12364
   D29       -0.00089   0.00009  -0.00176   0.00000  -0.00172  -0.00261
   D30        3.14052   0.00008  -0.00214   0.00000  -0.00212   3.13840
   D31        3.14150   0.00001  -0.00015   0.00000  -0.00015   3.14136
   D32       -0.00027   0.00000  -0.00053   0.00000  -0.00055  -0.00082
   D33        0.02164  -0.00227   0.04488   0.00000   0.04412   0.06576
   D34       -2.07395  -0.00161   0.03818   0.00000   0.03776  -2.03618
   D35       -3.12329  -0.00105   0.03818   0.00000   0.03783  -3.08546
   D36        1.06431  -0.00039   0.03148   0.00000   0.03148   1.09578
   D37        0.03411  -0.00212   0.06908   0.00000   0.06909   0.10320
   D38       -3.12546  -0.00041   0.03309   0.00000   0.03482  -3.09064
   D39       -0.03044   0.00219  -0.06222   0.00000  -0.06193  -0.09237
   D40        2.07072  -0.01321  -0.08089   0.00000  -0.08132   1.98939
         Item               Value     Threshold  Converged?
 Maximum Force            0.097782     0.000015     NO 
 RMS     Force            0.018439     0.000010     NO 
 Maximum Displacement     0.125499     0.000060     NO 
 RMS     Displacement     0.025021     0.000040     NO 
 Predicted change in Energy=-1.406708D-02
 GradGradGradGradGradGradGradGradGradGradGradGradGradGradGradGradGradGrad

                          Input orientation:                          
 ---------------------------------------------------------------------
 Center     Atomic      Atomic             Coordinates (Angstroms)
 Number     Number       Type             X           Y           Z
 ---------------------------------------------------------------------
      1          6           0       -5.662664   -1.736732    0.137221
      2          6           0       -4.324036   -1.829479   -0.012837
      3          6           0       -3.445660   -0.581541   -0.097777
      4          6           0       -4.076363    0.717704    0.005577
      5          6           0       -5.598850    0.755638    0.163279
      6          6           0       -6.330907   -0.379314    0.225581
      7          1           0       -1.681643   -1.777553   -0.355800
      8          1           0       -6.261914   -2.625167    0.193569
      9          1           0       -3.860796   -2.795760   -0.076471
     10          6           0       -2.091362   -0.794654   -0.277755
     11          6           0       -3.476615    1.988304   -0.033889
     12          1           0       -6.090807    1.707336    0.227480
     13          1           0       -7.397079   -0.323982    0.339339
     14          1           0       -4.072192    2.867661    0.077842
     15          8           0       -1.519966    2.367730   -0.199902
     16          8           0        0.028851    1.102501   -1.763600
     17         16           0       -0.599976    1.078459   -0.442730
 ---------------------------------------------------------------------
                    Distance matrix (angstroms):
                    1          2          3          4          5
     1  C    0.000000
     2  C    1.350201   0.000000
     3  C    2.510936   1.528434   0.000000
     4  C    2.925396   2.559263   1.447932   0.000000
     5  C    2.493324   2.887733   2.548025   1.531103   0.000000
     6  C    1.515566   2.487439   2.910345   2.516907   1.352001
     7  H    4.011640   2.665062   2.146805   3.477295   4.693720
     8  H    1.073122   2.105016   3.491787   3.998345   3.445347
     9  H    2.100936   1.073471   2.252900   3.521027   3.961154
    10  C    3.716707   2.475051   1.382726   2.511520   3.860103
    11  C    4.322497   3.910759   2.570826   1.405588   2.462158
    12  H    3.471752   3.960845   3.513055   2.255348   1.073253
    13  H    2.246089   3.440080   3.983858   3.496236   2.104805
    14  H    4.871710   4.704761   3.510040   2.151175   2.607417
    15  O    5.841422   5.051175   3.523766   3.049585   4.400913
    16  O    6.638352   5.532568   4.205139   4.486741   5.958540
    17  S    5.821722   4.744421   3.312477   3.523689   5.045810
                    6          7          8          9         10
     6  C    0.000000
     7  H    4.889655   0.000000
     8  H    2.247140   4.690323   0.000000
     9  H    3.468702   2.421462   2.422269   0.000000
    10  C    4.289475   1.067731   4.578911   2.678776   0.000000
    11  C    3.717515   4.184164   5.393861   4.799654   3.118213
    12  H    2.100419   5.650255   4.336013   5.034204   4.744552
    13  H    1.073651   5.938206   2.570079   4.334500   5.362180
    14  H    3.958089   5.242211   5.914341   5.669466   4.178838
    15  O    5.556297   4.151363   6.897094   5.670657   3.214534
    16  O    6.826357   3.633511   7.569660   5.759532   3.209710
    17  S    5.951076   3.055219   6.795532   5.077072   2.400000
                   11         12         13         14         15
    11  C    0.000000
    12  H    2.642206   0.000000
    13  H    4.566837   2.417667   0.000000
    14  H    1.067925   2.333142   4.616258   0.000000
    15  O    2.000000   4.638034   6.486644   2.615517   0.000000
    16  O    4.008098   6.463779   7.848672   4.829623   2.538659
    17  S    3.044671   5.567216   6.984202   3.940625   1.602363
                   16         17
    16  O    0.000000
    17  S    1.463114   0.000000
 Symmetry turned off by external request.
 Stoichiometry    C8H6O2S
 Framework group  C1[X(C8H6O2S)]
 Deg. of freedom    45
 Full point group                 C1      NOp   1
 Rotational constants (GHZ):           2.3201006           0.5573699           0.4641087
 Standard basis: VSTO-6G (5D, 7F)
    55 basis functions,   336 primitive gaussians,    56 cartesian basis functions
    28 alpha electrons       28 beta electrons
       nuclear repulsion energy       306.0199842446 Hartrees.
 Integral buffers will be    131072 words long.
 Regular integral format.
 Two-electron integral symmetry is turned off.
 Do NDO integrals.
 One-electron integrals computed using PRISM.
 NBasis=    55 RedAO= F EigKep=  0.00D+00  NBF=    55
 NBsUse=    55 1.00D-04 EigRej=  0.00D+00 NBFU=    55
 Initial guess from the checkpoint file:  "C:\Users\al6323\OneDrive - Imperial College London\Desktop\TSR20251114\TS_endo_freeze_opt+freq.chk"
 B after Tr=    -0.009495   -0.010266   -0.029020
         Rot=    0.999995   -0.002233   -0.002151    0.000230 Ang=  -0.36 deg.
 Keep J ints in memory in canonical form, NReq=1858957.
 Overlap will be assumed to be unity.
 Requested convergence on RMS density matrix=1.00D-08 within  32 cycles.
 Requested convergence on MAX density matrix=1.00D-06.
 Requested convergence on             energy=1.00D-06.
 No special actions if energy rises.
 SCF Done:  E(RPM6) =  0.192213948483     A.U. after   19 cycles
            NFock= 18  Conv=0.42D-08     -V/T= 1.0018
 QCSCF skips out because SCF is already converged.
 Calling FoFJK, ICntrl=      2127 FMM=F ISym2X=0 I1Cent= 0 IOpClX= 0 NMat=1 NMatS=1 NMatT=0.
 -------------------------------------------------------------------
 Center     Atomic                   Forces (Hartrees/Bohr)
 Number     Number              X              Y              Z
 -------------------------------------------------------------------
      1        6          -0.004507396    0.038214389    0.000924012
      2        6           0.000586928    0.039228904    0.001028932
      3        6           0.046971404   -0.037316142   -0.006890625
      4        6           0.017527767    0.060901290   -0.001934073
      5        6           0.030247255   -0.013777547   -0.002904328
      6        6           0.033501705   -0.026474353   -0.003816931
      7        1           0.009143008    0.008769173   -0.000962095
      8        1          -0.008273563   -0.000717562    0.000816090
      9        1           0.008459661   -0.002493047   -0.001026238
     10        6          -0.033064923    0.052084269    0.000797588
     11        6           0.009396248   -0.062248418   -0.000596377
     12        1           0.002098455    0.007922383   -0.000230447
     13        1          -0.006450588   -0.005373696    0.000535344
     14        1           0.030383964    0.013804643   -0.003616316
     15        8          -0.090169251   -0.043459805    0.010021016
     16        8          -0.013065249   -0.009851613    0.018292823
     17       16          -0.032785425   -0.019212868   -0.010438377
 -------------------------------------------------------------------
 Cartesian Forces:  Max     0.090169251 RMS     0.026293577

 GradGradGradGradGradGradGradGradGradGradGradGradGradGradGradGradGradGrad
 Berny optimization.
 Using GEDIIS/GDIIS optimizer.
 FormGI is forming the generalized inverse of G from B-inverse, IUseBI=4.
 Internal  Forces:  Max     0.096896765 RMS     0.020347603
 Search for a local minimum.
 Step number   3 out of a maximum of  102
 All quantities printed in internal units (Hartrees-Bohrs-Radians)
 Mixed Optimization -- RFO/linear search
 Update second derivatives using D2CorX and points    1    2    3
 ITU=  0  1  0
 Use linear search instead of GDIIS.
 Linear search step of   0.200 exceeds DXMaxT=   0.084 scaled by   0.843
 Quartic linear search produced a step of  1.68509.
 Iteration  1 RMS(Cart)=  0.04159217 RMS(Int)=  0.00177286
 Iteration  2 RMS(Cart)=  0.00167379 RMS(Int)=  0.00099810
 Iteration  3 RMS(Cart)=  0.00000187 RMS(Int)=  0.00099810
 Iteration  4 RMS(Cart)=  0.00000000 RMS(Int)=  0.00099810
 Iteration  1 RMS(Cart)=  0.00002220 RMS(Int)=  0.00000236
 Iteration  2 RMS(Cart)=  0.00000068 RMS(Int)=  0.00000241
 Variable       Old X    -DE/DX   Delta X   Delta X   Delta X     New X
                                 (Linear)    (Quad)   (Total)
    R1        2.55151  -0.00753  -0.00181   0.00000  -0.00172   2.54979
    R2        2.86400  -0.04412  -0.03934   0.00000  -0.03921   2.82480
    R3        2.02791   0.00526   0.00663   0.00000   0.00663   2.03454
    R4        2.88832  -0.03813  -0.02804   0.00000  -0.02809   2.86023
    R5        2.02857   0.00596   0.00737   0.00000   0.00737   2.03593
    R6        2.73619  -0.00286   0.01545   0.00000   0.01559   2.75179
    R7        2.61297  -0.06529  -0.04414   0.00000  -0.04401   2.56897
    R8        2.89337  -0.03937  -0.02730   0.00000  -0.02737   2.86599
    R9        2.65618  -0.08233  -0.06948   0.00000  -0.06928   2.58689
   R10        2.55491  -0.00990  -0.00290   0.00000  -0.00283   2.55208
   R11        2.02815   0.00605   0.00691   0.00000   0.00691   2.03506
   R12        2.02891   0.00619   0.00775   0.00000   0.00775   2.03666
   R13        2.01772  -0.00449  -0.00482   0.00000  -0.00482   2.01290
   R14        4.53534  -0.06982   0.00000   0.00000   0.00000   4.53534
   R15        2.01809  -0.00596  -0.00440   0.00000  -0.00440   2.01368
   R16        3.77945  -0.09690   0.00000   0.00000   0.00000   3.77945
   R17        3.02803  -0.02463  -0.03514   0.00000  -0.03534   2.99268
   R18        2.76488  -0.02229  -0.01377   0.00000  -0.01377   2.75111
    A1        2.10034   0.00013   0.00029   0.00000   0.00036   2.10070
    A2        2.09740   0.00650   0.00657   0.00000   0.00653   2.10393
    A3        2.08544  -0.00664  -0.00686   0.00000  -0.00689   2.07855
    A4        2.11748   0.00216   0.00615   0.00000   0.00602   2.12350
    A5        2.09008   0.00560   0.00504   0.00000   0.00510   2.09518
    A6        2.07563  -0.00776  -0.01119   0.00000  -0.01113   2.06450
    A7        2.06956  -0.00507  -0.00953   0.00000  -0.00964   2.05992
    A8        2.03115   0.00480   0.00728   0.00000   0.00777   2.03892
    A9        2.18245   0.00028   0.00222   0.00000   0.00182   2.18427
   A10        2.05186   0.00168  -0.00040   0.00000  -0.00052   2.05134
   A11        2.24372   0.00768   0.00623   0.00000   0.00577   2.24948
   A12        1.98754  -0.00936  -0.00594   0.00000  -0.00550   1.98204
   A13        2.12042  -0.00108   0.00063   0.00000   0.00045   2.12086
   A14        2.07594  -0.00507  -0.00643   0.00000  -0.00635   2.06959
   A15        2.08683   0.00615   0.00580   0.00000   0.00589   2.09272
   A16        2.10649   0.00217   0.00253   0.00000   0.00256   2.10905
   A17        2.08310  -0.00687  -0.00716   0.00000  -0.00718   2.07592
   A18        2.09360   0.00470   0.00463   0.00000   0.00462   2.09821
   A19        2.12614   0.01425   0.03217   0.00000   0.03267   2.15881
   A20        2.09127  -0.00448   0.00345   0.00000   0.00241   2.09368
   A21        2.06573  -0.00975  -0.03569   0.00000  -0.03521   2.03052
   A22        2.09838   0.03651   0.07456   0.00000   0.07403   2.17241
   A23        2.20342  -0.00628  -0.01817   0.00000  -0.01988   2.18354
   A24        1.98022  -0.03016  -0.05813   0.00000  -0.05808   1.92214
   A25        2.00604   0.01488   0.02563   0.00000   0.02224   2.02828
   A26        1.83461  -0.01188  -0.02665   0.00000  -0.02918   1.80544
   A27        1.91979  -0.01063  -0.02991   0.00000  -0.02909   1.89070
   A28        1.95018   0.01026   0.03571   0.00000   0.03464   1.98482
    D1        0.00007  -0.00022   0.00002   0.00000  -0.00031  -0.00024
    D2       -3.13933  -0.00009   0.00246   0.00000   0.00201  -3.13732
    D3        3.14029  -0.00021  -0.00149   0.00000  -0.00159   3.13870
    D4        0.00089  -0.00007   0.00095   0.00000   0.00073   0.00162
    D5       -0.00649  -0.00007  -0.00732   0.00000  -0.00726  -0.01376
    D6        3.13568  -0.00001  -0.00665   0.00000  -0.00653   3.12915
    D7        3.13647  -0.00009  -0.00582   0.00000  -0.00602   3.13045
    D8       -0.00454  -0.00003  -0.00515   0.00000  -0.00528  -0.00982
    D9        0.01538   0.00027   0.01734   0.00000   0.01727   0.03266
   D10       -3.11999  -0.00028   0.02415   0.00000   0.02321  -3.09677
   D11       -3.12838   0.00015   0.01492   0.00000   0.01502  -3.11337
   D12        0.01944  -0.00040   0.02174   0.00000   0.02096   0.04039
   D13       -0.02339  -0.00020  -0.02630   0.00000  -0.02591  -0.04930
   D14        3.13216  -0.00027  -0.01069   0.00000  -0.01051   3.12164
   D15        3.11139   0.00041  -0.03375   0.00000  -0.03238   3.07901
   D16       -0.01625   0.00035  -0.01815   0.00000  -0.01698  -0.03323
   D17        0.00277  -0.00065   0.00272   0.00000   0.00261   0.00537
   D18        3.13439   0.00045  -0.00838   0.00000  -0.00789   3.12650
   D19       -3.13215  -0.00122   0.01004   0.00000   0.00906  -3.12308
   D20       -0.00052  -0.00012  -0.00106   0.00000  -0.00143  -0.00196
   D21        0.01780   0.00000   0.01999   0.00000   0.01965   0.03745
   D22       -3.12615   0.00007   0.01736   0.00000   0.01718  -3.10897
   D23       -3.13573   0.00018   0.00668   0.00000   0.00665  -3.12907
   D24        0.00351   0.00025   0.00405   0.00000   0.00418   0.00769
   D25       -3.11760  -0.00015   0.02762   0.00000   0.03006  -3.08754
   D26       -0.03148   0.00050  -0.03496   0.00000  -0.03354  -0.06502
   D27        0.03752  -0.00028   0.04273   0.00000   0.04493   0.08245
   D28        3.12364   0.00037  -0.01985   0.00000  -0.01867   3.10497
   D29       -0.00261   0.00013  -0.00289   0.00000  -0.00276  -0.00536
   D30        3.13840   0.00007  -0.00357   0.00000  -0.00351   3.13489
   D31        3.14136   0.00008  -0.00025   0.00000  -0.00024   3.14112
   D32       -0.00082   0.00002  -0.00092   0.00000  -0.00099  -0.00181
   D33        0.06576  -0.00229   0.07434   0.00000   0.07207   0.13783
   D34       -2.03618  -0.00197   0.06363   0.00000   0.06229  -1.97390
   D35       -3.08546  -0.00109   0.06375   0.00000   0.06270  -3.02276
   D36        1.09578  -0.00077   0.05304   0.00000   0.05291   1.14870
   D37        0.10320  -0.00171   0.11641   0.00000   0.11624   0.21944
   D38       -3.09064   0.00071   0.05867   0.00000   0.06399  -3.02665
   D39       -0.09237   0.00147  -0.10435   0.00000  -0.10333  -0.19570
   D40        1.98939  -0.01306  -0.13704   0.00000  -0.13830   1.85109
         Item               Value     Threshold  Converged?
 Maximum Force            0.082289     0.000015     NO 
 RMS     Force            0.015889     0.000010     NO 
 Maximum Displacement     0.215979     0.000060     NO 
 RMS     Displacement     0.041662     0.000040     NO 
 Predicted change in Energy=-1.979652D-02
 GradGradGradGradGradGradGradGradGradGradGradGradGradGradGradGradGradGrad

                          Input orientation:                          
 ---------------------------------------------------------------------
 Center     Atomic      Atomic             Coordinates (Angstroms)
 Number     Number       Type             X           Y           Z
 ---------------------------------------------------------------------
      1          6           0       -5.652750   -1.720027    0.139332
      2          6           0       -4.313388   -1.814751    0.006214
      3          6           0       -3.435128   -0.585514   -0.086104
      4          6           0       -4.072509    0.719893    0.014512
      5          6           0       -5.583579    0.754510    0.139418
      6          6           0       -6.313110   -0.380363    0.200235
      7          1           0       -1.665102   -1.760959   -0.359094
      8          1           0       -6.260587   -2.606539    0.200671
      9          1           0       -3.843148   -2.782925   -0.041105
     10          6           0       -2.104869   -0.794668   -0.272497
     11          6           0       -3.497495    1.961775   -0.017816
     12          1           0       -6.074997    1.711709    0.184197
     13          1           0       -7.385558   -0.331376    0.295133
     14          1           0       -4.029499    2.876217    0.109692
     15          8           0       -1.531700    2.316938   -0.115343
     16          8           0       -0.085440    1.101794   -1.822445
     17         16           0       -0.613122    1.075439   -0.465873
 ---------------------------------------------------------------------
                    Distance matrix (angstroms):
                    1          2          3          4          5
     1  C    0.000000
     2  C    1.349290   0.000000
     3  C    2.501157   1.513568   0.000000
     4  C    2.909630   2.546078   1.456183   0.000000
     5  C    2.475503   2.869186   2.542119   1.516618   0.000000
     6  C    1.494819   2.468603   2.899459   2.503068   1.350501
     7  H    4.018885   2.673903   2.142238   3.477042   4.683007
     8  H    1.076630   2.111001   3.485685   3.985911   3.429102
     9  H    2.106411   1.077369   2.235424   3.510760   3.946534
    10  C    3.689627   2.448634   1.359439   2.499576   3.830280
    11  C    4.269131   3.863729   2.548967   1.368925   2.415358
    12  H    3.457907   3.945994   3.509873   2.241082   1.076907
    13  H    2.226039   3.423756   3.976912   3.487149   2.109627
    14  H    4.874554   4.700689   3.517839   2.158851   2.630149
    15  O    5.774512   4.982310   3.471040   3.003852   4.350150
    16  O    6.542643   5.452135   4.133073   4.406471   5.847995
    17  S    5.794717   4.718901   3.296468   3.510633   5.017450
                    6          7          8          9         10
     6  C    0.000000
     7  H    4.880868   0.000000
     8  H    2.226795   4.706040   0.000000
     9  H    3.454165   2.426811   2.435893   0.000000
    10  C    4.254929   1.065182   4.558153   2.651099   0.000000
    11  C    3.668902   4.163277   5.343398   4.757330   3.098749
    12  H    2.105641   5.639305   4.322266   5.023310   4.717246
    13  H    1.077753   5.932566   2.539853   4.321090   5.331278
    14  H    3.978491   5.226235   5.920020   5.664216   4.162410
    15  O    5.498809   4.087353   6.833949   5.599723   3.167855
    16  O    6.713561   3.582190   7.481789   5.690745   3.174429
    17  S    5.920551   3.027081   6.774592   5.049798   2.400000
                   11         12         13         14         15
    11  C    0.000000
    12  H    2.597472   0.000000
    13  H    4.524767   2.429830   0.000000
    14  H    1.065594   2.354929   4.646092   0.000000
    15  O    2.000000   4.593209   6.438145   2.569520   0.000000
    16  O    3.954538   6.346133   7.734975   4.736806   2.546064
    17  S    3.050566   5.537103   6.958746   3.904575   1.583659
                   16         17
    16  O    0.000000
    17  S    1.455827   0.000000
 Symmetry turned off by external request.
 Stoichiometry    C8H6O2S
 Framework group  C1[X(C8H6O2S)]
 Deg. of freedom    45
 Full point group                 C1      NOp   1
 Rotational constants (GHZ):           2.3300350           0.5674280           0.4741685
 Standard basis: VSTO-6G (5D, 7F)
    55 basis functions,   336 primitive gaussians,    56 cartesian basis functions
    28 alpha electrons       28 beta electrons
       nuclear repulsion energy       307.5528128033 Hartrees.
 Integral buffers will be    131072 words long.
 Regular integral format.
 Two-electron integral symmetry is turned off.
 Do NDO integrals.
 One-electron integrals computed using PRISM.
 NBasis=    55 RedAO= F EigKep=  0.00D+00  NBF=    55
 NBsUse=    55 1.00D-04 EigRej=  0.00D+00 NBFU=    55
 Initial guess from the checkpoint file:  "C:\Users\al6323\OneDrive - Imperial College London\Desktop\TSR20251114\TS_endo_freeze_opt+freq.chk"
 B after Tr=    -0.017161   -0.015087   -0.047647
         Rot=    0.999987   -0.003690   -0.003528    0.000254 Ang=  -0.59 deg.
 Keep J ints in memory in canonical form, NReq=1858957.
 Overlap will be assumed to be unity.
 Requested convergence on RMS density matrix=1.00D-08 within  32 cycles.
 Requested convergence on MAX density matrix=1.00D-06.
 Requested convergence on             energy=1.00D-06.
 No special actions if energy rises.
 SCF Done:  E(RPM6) =  0.172723911948     A.U. after   19 cycles
            NFock= 18  Conv=0.48D-08     -V/T= 1.0016
 QCSCF skips out because SCF is already converged.
 Calling FoFJK, ICntrl=      2127 FMM=F ISym2X=0 I1Cent= 0 IOpClX= 0 NMat=1 NMatS=1 NMatT=0.
 -------------------------------------------------------------------
 Center     Atomic                   Forces (Hartrees/Bohr)
 Number     Number              X              Y              Z
 -------------------------------------------------------------------
      1        6          -0.003218879    0.026875551    0.000197987
      2        6          -0.000667131    0.028782150    0.000711544
      3        6           0.031115712   -0.027505776   -0.004779718
      4        6           0.011971914    0.036570603   -0.002668003
      5        6           0.020757670   -0.010143361   -0.001309386
      6        6           0.024172187   -0.018892283   -0.002026626
      7        1           0.008598698    0.007583555   -0.000831289
      8        1          -0.006415993   -0.000731479    0.000559954
      9        1           0.006658177   -0.002069179   -0.000683078
     10        6          -0.010299877    0.049857072   -0.001930713
     11        6           0.025796346   -0.033658877    0.001760476
     12        1           0.001462690    0.006171082   -0.000251290
     13        1          -0.005196216   -0.004040344    0.000344088
     14        1           0.027420839    0.011415253   -0.003472868
     15        8          -0.088114514   -0.037058023    0.006201921
     16        8          -0.008928683   -0.008939731    0.013139427
     17       16          -0.035112939   -0.024216212   -0.004962425
 -------------------------------------------------------------------
 Cartesian Forces:  Max     0.088114514 RMS     0.021341640

 GradGradGradGradGradGradGradGradGradGradGradGradGradGradGradGradGradGrad
 Berny optimization.
 Using GEDIIS/GDIIS optimizer.
 FormGI is forming the generalized inverse of G from B-inverse, IUseBI=4.
 Internal  Forces:  Max     0.092845095 RMS     0.016654904
 Search for a local minimum.
 Step number   4 out of a maximum of  102
 All quantities printed in internal units (Hartrees-Bohrs-Radians)
 Mixed Optimization -- RFO/linear search
 Update second derivatives using D2CorX and points    1    2    3    4
 ITU=  0  0  1  0
 Use linear search instead of GDIIS.
 Linear search step of   0.335 exceeds DXMaxT=   0.084 scaled by   0.502
 Quartic linear search produced a step of  1.00359.
 Iteration  1 RMS(Cart)=  0.04117398 RMS(Int)=  0.00188881
 Iteration  2 RMS(Cart)=  0.00160158 RMS(Int)=  0.00126123
 Iteration  3 RMS(Cart)=  0.00000160 RMS(Int)=  0.00126123
 Iteration  4 RMS(Cart)=  0.00000000 RMS(Int)=  0.00126123
 Iteration  1 RMS(Cart)=  0.00003079 RMS(Int)=  0.00000405
 Iteration  2 RMS(Cart)=  0.00000133 RMS(Int)=  0.00000416
 Iteration  3 RMS(Cart)=  0.00000011 RMS(Int)=  0.00000418
 Variable       Old X    -DE/DX   Delta X   Delta X   Delta X     New X
                                 (Linear)    (Quad)   (Total)
    R1        2.54979  -0.00480  -0.00173   0.00000  -0.00163   2.54816
    R2        2.82480  -0.03106  -0.03935   0.00000  -0.03918   2.78562
    R3        2.03454   0.00426   0.00665   0.00000   0.00665   2.04119
    R4        2.86023  -0.02678  -0.02819   0.00000  -0.02825   2.83198
    R5        2.03593   0.00480   0.00739   0.00000   0.00739   2.04333
    R6        2.75179  -0.00095   0.01565   0.00000   0.01578   2.76757
    R7        2.56897  -0.04273  -0.04416   0.00000  -0.04406   2.52490
    R8        2.86599  -0.02693  -0.02747   0.00000  -0.02756   2.83843
    R9        2.58689  -0.05054  -0.06953   0.00000  -0.06927   2.51762
   R10        2.55208  -0.00641  -0.00284   0.00000  -0.00277   2.54931
   R11        2.03506   0.00481   0.00693   0.00000   0.00693   2.04199
   R12        2.03666   0.00502   0.00778   0.00000   0.00778   2.04444
   R13        2.01290  -0.00326  -0.00483   0.00000  -0.00483   2.00807
   R14        4.53534  -0.06847   0.00000   0.00000   0.00000   4.53534
   R15        2.01368  -0.00431  -0.00442   0.00000  -0.00442   2.00926
   R16        3.77945  -0.09285   0.00000   0.00000   0.00000   3.77945
[...]
   yx         0.402299D+00      0.596146D-01      0.663302D-01
   yy         0.123520D+03      0.183038D+02      0.203658D+02
   zx        -0.680425D+02     -0.100829D+02     -0.112187D+02
   zy        -0.303661D+02     -0.449980D+01     -0.500670D+01
   zz         0.134221D+03      0.198895D+02      0.221301D+02

 First dipole hyperpolarizability, Beta (dipole orientation).
 ||, _|_  parallel and perpendicular components, (z) with respect to z axis,
 vector components x,y,z.  Values do not include the 1/n! factor of 1/2.
 (esu units = statvolt**-1 cm**4 , SI units = C**3 m**3 J**-2)
 Beta(0;0,0):
               (au)            (10**-30 esu)      (10**-50 SI)
   || (z)    -0.391790D+03     -0.338476D+01     -0.125622D+01
   _|_(z)    -0.130597D+03     -0.112825D+01     -0.418740D+00
   x          0.819679D+03      0.708138D+01      0.262819D+01
   y          0.278572D+04      0.240665D+02      0.893203D+01
   z         -0.195895D+04     -0.169238D+02     -0.628110D+01
   ||         0.700560D+03      0.605229D+01      0.224625D+01
   xxx       -0.514993D+02     -0.444914D+00     -0.165125D+00
   xxy        0.221083D+03      0.190998D+01      0.708871D+00
   yxy        0.328427D+02      0.283735D+00      0.105306D+00
   yyy        0.309570D+03      0.267444D+01      0.992592D+00
   xxz       -0.372754D+02     -0.322031D+00     -0.119519D+00
   yxz       -0.258934D+03     -0.223699D+01     -0.830237D+00
   yyz       -0.259448D+03     -0.224143D+01     -0.831885D+00
   zxz        0.291883D+03      0.252164D+01      0.935882D+00
   zyz        0.397922D+03      0.343773D+01      0.127588D+01
   zzz       -0.356260D+03     -0.307781D+01     -0.114230D+01

 ----------------------------------------------------------------------
 Unable to Open any file for archive entry.
 1|1|UNPC-SKCH-134-020|Freq|RPM6|ZDO|C8H6O2S1|AL6323|14-Nov-2025|0||#N 
 Geom=AllCheck Guess=TCheck SCRF=Check GenChk RPM6/ZDO Freq||Title Card
  Required||0,1|C,-5.6372057761,-1.6865041092,0.2088683332|C,-4.2941149
 306,-1.7832584492,0.175948035|C,-3.406653986,-0.6227457213,-0.04936279
 56|C,-4.0679909502,0.7079343504,0.033603416|C,-5.5489652188,0.73610223
 78,-0.0661304546|C,-6.2773530925,-0.393492636,0.0278933767|H,-1.515404
 8827,-1.6422215741,-0.4783367638|H,-6.2787786468,-2.5514774102,0.35982
 29941|H,-3.7878676586,-2.742983007,0.2934097158|C,-2.1385860098,-0.806
 3230017,-0.3514639262|C,-3.5211256117,1.8882348328,0.2093001312|H,-6.0
 171518302,1.7073414863,-0.2136758959|H,-7.3668335412,-0.3753208035,-0.
 0333338481|H,-3.5041196077,2.9283056303,0.3366319548|O,-1.527233824,1.
 9423026941,0.3558341392|O,-0.8435084181,1.3205203832,-2.0606055051|S,-
 0.729086855,1.1147381974,-0.6392764465||Version=EM64W-G16RevC.01|HF=0.
 138084|RMSD=1.744e-009|RMSF=1.787e-002|ZeroPoint=0.1087405|Thermal=0.1
 179603|ETot=0.2560442|HTot=0.2569884|GTot=0.2119379|Dipole=-0.6463507,
 -0.3268131,0.8708276|DipoleDeriv=-0.8480065,0.056683,0.1017097,0.05332
 72,-0.4393184,-0.0120665,0.0084266,0.0154053,-0.3225218,0.4259394,-0.0
 306838,-0.0760044,0.4014936,-0.1078066,-0.0618833,-0.0988276,0.0505826
 ,0.0388053,-0.5609317,0.3562562,0.1386135,-0.1248896,-0.2772207,0.0251
 304,0.1718569,-0.1067725,-0.1459964,-0.1818463,0.3043812,-0.0020798,-0
 .1751349,0.0953814,0.1307913,-0.0299548,0.0619183,0.1939636,-0.0608011
 ,-0.2719471,-0.0124852,0.0503341,-0.5191639,-0.0115526,-0.0190349,0.02
 95807,-0.358331,-0.1045051,-0.0765584,-0.0080625,-0.3411551,0.4256949,
 0.0529599,0.052054,-0.0175886,0.0334379,0.1044732,-0.2506704,0.0305797
 ,-0.1529599,0.1971731,0.0437764,0.0344944,0.0722969,0.1245126,0.206003
 4,0.0826799,-0.0181454,0.1984605,0.2444525,-0.0226577,-0.0355575,-0.01
 7006,0.1821619,0.0913069,-0.0849503,0.0203418,-0.066613,0.2603525,-0.0
 182943,0.0092147,-0.0181555,0.13422,-0.2195782,-0.2772489,-0.0157308,-
 0.2603551,-0.4873577,0.124475,-0.0630854,0.0609176,-0.3223886,1.02873,
 -0.0817462,-0.0313787,0.2603764,-0.3657467,-0.1435255,0.1029863,-0.086
 9584,-0.0718265,0.1521948,-0.1126118,0.0018643,-0.1123926,0.2279756,-0
 .0036111,0.0111393,-0.0293782,0.1850398,0.3401365,0.0731488,-0.0068036
 ,-0.0270434,0.0680814,0.0094827,0.0224137,0.0017678,0.131487,-0.043225
 ,0.0319334,0.0009393,-0.0847981,0.5089941,0.0678243,-0.0191249,0.04550
 71,0.2458759,-0.8432981,0.2561378,0.1269293,-0.4016178,-0.843014,-0.05
 06461,-0.1909161,-0.3560267,-0.7266807,-0.4696835,0.0608713,-0.1913011
 ,-0.2474759,-0.6556227,0.1561893,1.0916995,0.6231038,-1.1016184,0.9831
 723,-0.0356583,-0.0589553,1.0305984,1.667044,-0.2864145,-1.0478215,-0.
 3292741,1.7799158|Polar=174.88924,31.5699844,137.2249695,-26.4984888,-
 4.8398277,50.8378858|HyperPolar=173.039762,557.9630901,326.7280317,526
 .0053974,-95.6363929,-107.4525466,-109.9974118,9.3452444,-36.1232452,1
 27.4410223|PG=C01 [X(C8H6O2S1)]|NImag=2||0.82166011,-0.03287559,0.5390
 4886,-0.01643695,-0.05984834,0.14176312,-0.53632227,0.01136018,0.01504
 972,0.84418117,0.05092684,-0.07280209,-0.00065114,-0.02087073,0.491952
 73,0.00889567,0.00110239,-0.05847222,-0.03002447,-0.05081805,0.1454370
 0,-0.06295781,-0.01655036,0.00672850,-0.08654605,-0.07688387,0.0069976
 1,0.82889307,-0.02429785,-0.00030963,0.00291140,-0.09217768,-0.1777873
 0,0.02430614,-0.05295826,0.51580861,0.01209543,-0.00121340,0.00677888,
 0.00415034,0.01860979,-0.06797558,-0.14578207,0.00126043,0.16846160,-0
 .00911545,0.00349067,-0.00024043,0.01333331,-0.00556664,0.00009065,-0.
 08300297,0.07481278,0.00463343,0.54683866,-0.01032610,0.00219781,-0.00
 054500,0.01020890,-0.04668719,-0.00126181,0.00957977,-0.16804612,0.006
 55003,0.13161589,0.82930346,-0.00182614,0.00164954,-0.00381254,0.00300
 406,0.00468306,0.00502994,-0.00328269,-0.00438851,-0.06054153,0.035788
 92,0.07636048,0.14371256,0.02814158,-0.01218918,0.00142790,-0.01430370
 ,-0.00097505,0.00103723,-0.01916223,0.02027659,-0.00504804,-0.21654169
 ,0.03475986,-0.00688180,0.58470534,0.01081056,-0.06816694,0.00834299,-
 0.00919443,-0.00957248,0.00178452,0.03559403,-0.00570307,-0.00311914,0
 .01330240,-0.03776976,0.00465017,0.15758898,0.72646775,-0.00033222,0.0
 0827447,0.00624598,0.00039402,0.00054778,0.00013359,0.00173281,-0.0010
 9395,0.00750169,-0.01464292,0.00493079,-0.06071880,0.01133687,-0.05816
 863,0.13538700,-0.10307489,0.10225842,-0.01505012,-0.03894580,0.034124
 51,-0.00322455,-0.00209647,0.00028451,-0.00091826,-0.04726096,-0.02994
 121,-0.00021928,-0.20912334,-0.23483537,0.02001252,0.60920505,0.051487
 26,-0.22882836,0.02426994,0.06022372,-0.00452593,-0.00057773,-0.017155
 29,-0.00142343,0.00543226,-0.03794286,-0.01434165,-0.00352664,-0.19522
 034,-0.39719712,0.02920027,0.12781799,0.75589829,-0.00859713,0.0243400
 1,-0.07053204,-0.00664989,0.00094497,0.00557432,0.00159520,-0.00040579
 ,-0.00456371,0.00002000,0.00003097,0.00555797,0.01621193,0.02754495,-0
 .05972122,0.00704507,-0.06600082,0.14665894,-0.00053640,0.00013088,0.0
 0012659,-0.00061687,0.00047170,-0.00079395,-0.03278874,0.02574180,0.00
 827428,-0.00093872,-0.00494380,0.00244129,0.00021231,0.00152341,-0.000
 05157,0.00030880,-0.00068138,-0.00004471,0.12799425,-0.00211184,0.0004
 4163,0.00012090,0.00267440,0.00182230,-0.00105938,-0.00422546,-0.00026
 503,0.00148941,0.00110375,-0.00949000,-0.00081219,0.00091933,0.0016200
 1,0.00015952,0.00042462,-0.00176603,0.00014202,-0.12033798,0.17218538,
 0.00065272,-0.00044508,0.00015312,-0.00132740,-0.00075566,-0.00262812,
 0.00966195,-0.00598239,0.00236732,0.00233469,0.00166963,0.00952418,-0.
 00021234,-0.00114212,-0.00070105,-0.00013784,0.00075243,-0.00036276,-0
 .02205684,0.02502888,0.02593465,-0.09833391,-0.08774833,0.01483433,-0.
 03656083,-0.02499799,0.00520388,-0.00174111,0.00046067,0.00000943,0.00
 004803,0.00033637,0.00000648,-0.00093802,0.00162578,-0.00018735,0.0066
 9271,0.00594873,-0.00091560,0.00000386,0.00010218,-0.00002957,0.131716
 87,-0.08688452,-0.15168985,0.01965491,-0.01178191,0.00003218,0.0014020
 0,0.00142221,0.00022383,0.00088778,-0.00024415,0.00039630,-0.00002073,
 0.00182375,-0.00177778,0.00048614,-0.00767318,-0.03804664,0.00695597,0
 .00002386,0.00025787,0.00001723,0.10349501,0.19049210,0.01436356,0.020
 08504,-0.04409834,0.00364466,0.00161858,0.00540934,0.00061210,0.001019
 48,0.00783970,-0.00006793,0.00018402,-0.00004538,-0.00016769,0.0006035
 6,0.00106267,0.00128181,0.00605268,0.00556091,0.00009580,0.00002878,0.
 00030503,-0.01901143,-0.02885891,0.02743859,-0.02972526,0.02905240,-0.
 00271440,-0.07236335,0.07484079,-0.00930585,0.00477177,-0.01256369,0.0
 0206581,-0.00085938,-0.00220130,0.00040060,-0.00009898,-0.00035000,0.0
 0003349,-0.00301476,0.00053368,0.00036546,-0.00045673,-0.00062913,0.00
 017951,-0.00079283,0.00018964,-0.00008382,0.10292518,0.01373866,-0.005
 38172,0.00123849,0.07701956,-0.17612193,0.01629063,-0.00155483,-0.0355
 2296,0.00672659,-0.00183073,-0.00248685,0.00036424,0.00062007,0.001346
 50,-0.00006603,0.00044599,-0.00125349,0.00134222,-0.00047367,0.0000431
 4,0.00018736,0.00012260,0.00093946,-0.00051180,-0.08811096,0.22008415,
 -0.00173546,0.00112680,0.00688509,-0.00842366,0.01659593,-0.04485105,-
 0.00081270,0.00649867,0.00613972,-0.00003835,0.00042122,0.00111376,0.0
 0054062,0.00031978,-0.00021897,0.00049056,0.00063980,0.00850374,0.0002
 1996,0.00007425,0.00019917,-0.00005703,-0.00052124,-0.00232060,0.00905
 130,-0.02556499,0.02626773,0.00817406,-0.00659636,-0.00014010,-0.06638
 809,-0.03172239,0.01966536,-0.55406837,0.07008406,0.12187467,-0.030966
 12,0.06737649,0.01037410,-0.00412275,-0.00310590,-0.00093028,-0.000609
 85,0.00636295,-0.00018090,-0.09541626,0.12187570,0.01112524,-0.0006081
 5,-0.00011610,-0.00065980,-0.00043052,-0.00031174,0.00052862,0.7566783
 8,-0.00495581,-0.00052121,-0.00008488,-0.02300094,0.00050761,0.0064521
 9,0.10207375,-0.06720304,-0.02326679,0.02878815,-0.00700499,-0.0067219
 7,0.00261253,-0.00173490,-0.00035643,0.00053380,-0.00327573,0.00057370
 ,0.09993933,-0.15862863,-0.01994904,-0.00014710,0.00032009,-0.00042716
 ,-0.00116496,-0.00139320,0.00034697,-0.22859437,0.24456334,-0.00269652
 ,0.00229571,0.00025122,0.02006424,0.00838239,0.00673023,0.11908122,-0.
 01724194,-0.07459973,0.00668948,-0.01507066,-0.00421916,0.00136182,0.0
 0166173,0.00140259,0.00023472,-0.00249996,0.00084456,0.01192556,-0.025
 61699,-0.03723809,0.00021234,-0.00002742,-0.00057991,0.00023657,0.0002
 0120,-0.00043420,-0.15553704,0.05022776,0.13574830,-0.00373462,0.00016
 572,0.00013701,-0.00250744,0.00752585,0.00020564,0.02052588,-0.0179173
 6,-0.00096103,-0.12691885,-0.19836321,-0.03051957,-0.05111449,-0.02142
 131,-0.00645180,0.00157132,-0.00262116,0.00069345,-0.00004290,0.001464
 41,0.00031343,-0.00008392,0.00018165,-0.00018503,0.00091212,0.00030046
 ,-0.00022714,-0.02087507,-0.00797750,0.00372934,0.10754896,0.00519555,
 -0.00370879,0.00023792,-0.00470344,-0.00229684,0.00158308,0.02513965,-
 0.06245232,-0.01261984,-0.19912726,-0.52137585,-0.07110198,-0.05166332
 ,-0.01493538,-0.00475296,0.00287716,0.00875519,-0.00031422,0.00209034,
 0.00395786,-0.00011329,-0.00005107,0.00011345,-0.00006137,-0.00006126,
 0.00020298,0.00019310,-0.01758980,-0.00647871,0.00399108,0.21314907,0.
 86091304,-0.00008682,-0.00025183,0.00003823,-0.00012854,0.00053861,0.0
 0071576,0.00107448,-0.00867026,0.00331160,-0.03021486,-0.07438548,-0.0
 4525865,-0.00892828,-0.00319139,0.00053079,0.00078933,0.00035607,0.000
 23785,-0.00038681,0.00024745,-0.00094814,0.00000125,0.00004726,-0.0000
 9389,0.00002636,-0.00001516,0.00009658,-0.00200724,-0.00096201,0.00193
 250,0.02998460,0.11231546,0.09009430,-0.00043036,-0.00181299,-0.000352
 49,-0.00030753,-0.00036481,0.00006379,-0.00264505,-0.00055668,-0.00016
 790,-0.02800751,0.02188090,-0.00531346,-0.06637626,0.07183684,-0.01036
 260,0.00721875,-0.01099765,0.00133354,-0.00017221,-0.00006402,0.000087
 30,0.00024180,-0.00018817,0.00005055,-0.00004239,0.00012207,0.00005368
 ,0.00011678,0.00085316,-0.00000065,-0.00580209,0.00121608,-0.00097983,
 0.09566140,-0.00252690,-0.00118532,0.00110546,0.00037932,0.00067982,-0
 .00011711,-0.00041473,-0.00007790,0.00018001,0.01061695,-0.00233589,0.
 00161311,0.07194691,-0.18154799,0.02177047,0.00174850,-0.04418468,0.00
 600844,-0.00002640,-0.00009657,0.00007203,0.00016244,-0.00039359,0.000
 03235,0.00004117,-0.00019634,-0.00008145,-0.00016491,-0.00021432,-0.00
 003200,-0.00075910,0.00061946,0.00005628,-0.08079618,0.22877904,0.0001
 5431,0.00059520,0.00774583,-0.00048492,-0.00015305,0.00012217,0.000113
 95,0.00004462,0.00103902,-0.00203535,0.00326148,0.00550296,-0.01163237
 ,0.02149077,-0.04273418,-0.00003219,0.00598081,0.00537145,0.00006779,0
 .00002650,0.00028550,0.00004549,-0.00008182,-0.00021916,-0.00005685,-0
 .00008569,-0.00084086,-0.00026137,0.00009205,-0.00034478,-0.00160097,-
 0.00071654,0.00044371,0.01520893,-0.03016346,0.02580659,-0.02221626,0.
 01382500,-0.00311378,-0.00027579,0.00096124,-0.00024060,0.00023132,0.0
 0005726,0.00000995,-0.00105677,-0.00143940,-0.00037838,-0.02991916,-0.
 01459497,-0.00014249,-0.21711991,0.00299387,-0.00986701,-0.00007516,0.
 00004124,-0.00000466,0.00050470,0.00027269,-0.00002190,-0.00019311,0.0
 0010076,0.00007140,0.00009269,-0.00005654,-0.00000095,-0.00082595,0.00
 026315,-0.00007837,0.00047219,-0.00077885,0.00027863,0.26979727,0.0278
 4546,-0.00844536,0.00338180,0.00082154,-0.00278066,0.00055407,0.000108
 81,0.00002603,-0.00002369,-0.00200003,-0.00197372,0.00101239,-0.028917
 13,-0.00620039,-0.00012883,0.00330617,-0.03338979,-0.00071193,0.000034
 45,-0.00000006,-0.00000587,0.00089774,-0.00033727,0.00011190,0.0004420
 4,0.00002093,-0.00021507,-0.00002017,0.00004247,-0.00000335,0.00024021
 ,0.00029521,0.00016448,-0.00087055,-0.00034104,-0.00028340,-0.00147008
 ,0.05317326,-0.00432394,0.00200657,0.00719029,-0.00047102,0.00070316,0
 .00149372,-0.00020886,0.00012953,-0.00033129,0.00026555,0.00082897,0.0
 0773770,0.00100800,0.00021656,0.00611604,-0.00982408,0.00003697,-0.043
 58535,-0.00001524,-0.00000938,0.00006008,-0.00015213,0.00007459,0.0000
 2561,-0.00012757,-0.00005446,-0.00059692,0.00006538,0.00010312,-0.0001
 3998,-0.00007913,-0.00016184,0.00053145,0.00028493,-0.00029000,-0.0022
 4692,0.01343128,-0.00369682,0.02436720,0.00048311,-0.00013961,-0.00001
 003,0.00048159,-0.00131940,-0.00001580,-0.00306919,0.00286502,-0.00040
 151,0.00839395,-0.01893460,-0.00154738,-0.00037073,0.00031714,0.000019
 67,0.00006391,0.00048753,-0.00001808,0.00001485,-0.00018074,0.00009989
 ,0.00000835,0.00000404,0.00001501,-0.00017755,-0.00012121,0.00003550,0
 .00249466,0.00122525,-0.00067071,-0.00904361,0.00669789,0.00099793,-0.
 00022346,-0.00007378,-0.00006058,0.00004721,0.00000599,-0.00001383,0.0
 2990134,-0.00016018,0.00032849,-0.00003636,0.00011639,0.00014875,-0.00
 007969,-0.00102316,-0.00090636,-0.00058029,-0.00538482,-0.02350784,-0.
 00311579,0.00046851,-0.00063505,-0.00034832,0.00021595,-0.00068515,0.0
 0003402,0.00026761,-0.00005178,-0.00001191,-0.00006299,-0.00012538,0.0
 0002607,0.00005084,-0.00007800,-0.00002327,-0.00079628,-0.00044049,0.0
 0021752,-0.00365538,-0.23618293,-0.02621674,-0.00020237,0.00035496,-0.
 00003316,-0.00023364,0.00006136,0.00004249,0.00331429,0.26483480,-0.00
 006517,0.00017555,-0.00009600,0.00039598,-0.00046827,-0.00010439,-0.00
 142085,-0.00038783,0.00631835,0.00030658,-0.00407739,-0.00121722,0.000
 24626,-0.00012074,0.00107740,-0.00000715,-0.00023493,0.00009921,-0.000
 06834,-0.00008758,-0.00044500,-0.00000768,-0.00001741,0.00005007,-0.00
 006887,-0.00005772,0.00020668,0.00010970,0.00048734,-0.00042869,-0.000
 00396,-0.02553934,-0.02499937,-0.00003479,0.00000823,0.00024400,-0.000
 03314,-0.00001743,-0.00014105,0.00099393,0.03071288,0.01833113,0.00709
 496,-0.00218217,-0.00012837,-0.00149768,-0.00658943,0.00056705,-0.0023
 6864,0.01528237,-0.00234014,-0.02466779,-0.01500810,-0.00305702,-0.000
 73446,-0.00816306,0.00110822,-0.00392860,0.00829966,-0.00095751,0.0002
 2121,-0.00124308,-0.00020020,-0.00001781,-0.00029694,0.00020150,-0.000
 59655,-0.00004340,0.00027727,0.02297849,0.01301408,-0.00453741,0.10806
 537,0.01053644,0.00114999,0.00016822,0.00035574,0.00028935,0.00071350,
 -0.00048456,0.00000401,-0.02688305,0.00701478,-0.00037848,0.02098758,-
 0.00393686,0.00084126,0.00005209,0.00190123,0.00297497,0.00016516,-0.0
 0063002,-0.00427161,0.00136821,-0.00745839,0.00080508,-0.00073098,0.00
 106231,0.00167407,-0.00100517,0.00063733,-0.00350355,0.00033711,-0.002
 57050,-0.00151114,0.00110707,0.00019823,0.00043710,-0.00018933,0.00010
 654,0.00017627,-0.00014645,-0.00218874,-0.01703236,-0.00638872,-0.0205
 8306,-0.02667759,-0.00055852,0.00004973,-0.00058556,0.00001504,0.00003
 911,0.00000705,0.00014588,0.01003192,-0.00524863,0.00016773,-0.0502197
 8,0.12964611,-0.00262487,0.00045005,0.00038172,0.00013568,0.00247490,-
 0.00031573,0.00407915,-0.00539255,-0.00260389,0.00271726,0.00462954,-0
 .00063573,0.00012669,0.00117067,0.00484063,0.00059838,-0.00246281,0.00
 046799,-0.00163163,-0.00014282,0.00057261,0.00008468,0.00029218,-0.000
 15846,0.00013365,0.00025240,-0.00032406,-0.00597929,-0.01191182,0.0025
 5867,-0.03564462,-0.00257787,-0.02671817,0.00022276,-0.00032158,-0.000
 34703,0.00001630,-0.00003280,-0.00053321,0.00418746,-0.00092750,-0.000
 00018,-0.06762889,0.10429627,0.17991675,-0.00003909,-0.00001771,0.0002
 0044,0.00008210,-0.00019149,-0.00105340,-0.00176743,0.00120446,-0.0002
 3943,0.00082036,-0.00238912,-0.00014962,-0.00002935,0.00066850,0.00078
 232,0.00013718,-0.00010556,-0.00010902,-0.00099465,-0.00098478,-0.0005
 6835,0.00000457,0.00002343,0.00006217,-0.00003845,-0.00002605,-0.00004
 754,0.00688909,-0.00022970,0.00726814,-0.00174783,-0.00011086,-0.00079
 244,-0.00007225,0.00002659,-0.00018206,-0.00000385,0.00002628,-0.00009
 838,0.00078727,0.00060756,-0.00043911,0.00255212,0.00601085,0.01728073
 ,0.01657203,-0.00154280,0.00027658,0.00013412,0.00074112,0.00089413,-0
 .00125741,-0.00284354,-0.00052352,0.00053447,-0.00059430,-0.00253988,0
 .00046607,0.00072872,0.00087742,-0.00026404,0.00019701,-0.00130068,0.0
 0004758,-0.00084788,-0.00064092,-0.00067184,0.00010120,0.00021548,0.00
 004699,0.00000787,0.00004667,-0.00006771,0.00127428,-0.00355065,0.0093
 6083,0.00148016,0.00163606,0.00086646,0.00005251,-0.00020827,0.0000974
 8,0.00007360,-0.00001267,0.00003891,-0.00058312,-0.00091097,0.00019364
 ,0.00384461,-0.00050361,-0.01570972,-0.00142862,0.02508556,0.00381568,
 0.00002329,-0.00006583,-0.00084442,-0.00252561,0.00018643,-0.00093311,
 0.00630073,-0.00038973,0.00088422,0.00186315,-0.00019442,-0.00113117,-
 0.00169026,0.00050124,-0.00028543,0.00258772,-0.00032878,0.00383273,0.
 00066279,-0.00133377,-0.00026602,-0.00072159,0.00013103,0.00003892,-0.
 00045906,0.00012744,0.00647526,0.00861456,-0.00377625,0.00125552,-0.00
 143324,-0.00068497,-0.00017892,0.00056259,-0.00021234,-0.00041767,0.00
 004305,-0.00011203,-0.00042151,0.00155429,-0.00025690,-0.00458499,0.00
 338427,-0.01928489,0.02055994,-0.05926977,0.48380189,0.00093337,-0.000
 16983,-0.00031767,-0.00144194,0.00063204,0.00193158,-0.00221114,-0.010
 59882,0.00274577,-0.00009885,0.00778683,0.00115928,-0.00022439,-0.0016
 0342,-0.00231844,-0.00002355,0.00056911,0.00007517,0.00328324,0.001170
 79,0.00008291,-0.00014399,-0.00025176,-0.00012941,0.00018071,0.0000020
 4,0.00007310,-0.02393693,0.01708853,-0.00736153,-0.01592512,0.00614290
 ,0.00957977,0.00019995,0.00026315,0.00018789,-0.00017255,0.00003340,0.
 00025491,-0.00290844,-0.00053674,0.00047518,-0.10209151,0.06755156,0.0
 8392936,-0.02315286,-0.00066024,-0.02780208,0.16773805,0.00961314,-0.0
 0209387,-0.00028595,-0.00371645,-0.00643967,0.00153105,0.00031666,0.00
 843857,-0.00221536,-0.00358209,0.00485395,-0.00038224,-0.00384240,-0.0
 0674520,0.00081519,-0.00242126,0.00906742,-0.00086923,-0.00034212,-0.0
 0787937,0.00024275,-0.00044279,-0.00105662,0.00023959,-0.00018417,-0.0
 0042564,0.00040411,0.02423619,0.02204529,-0.00945781,0.04879249,-0.002
 38334,-0.00033980,-0.0