 Default is to use a total of   8 processors:
                                8 via shared-memory
                                1 via Linda
 Entering Link 1 = C:\G16W\l1.exe PID=      5124.
  
 Copyright (c) 1988-2019, Gaussian, Inc.  All Rights Reserved.
  
 This is part of the Gaussian(R) 16 program.  It is based on
 the Gaussian(R) 09 system (copyright 2009, Gaussian, Inc.),
 the Gaussian(R) 03 system (copyright 2003, Gaussian, Inc.),
 the Gaussian(R) 98 system (copyright 1998, Gaussian, Inc.),
 the Gaussian(R) 94 system (copyright 1995, Gaussian, Inc.),
 the Gaussian 92(TM) system (copyright 1992, Gaussian, Inc.),
 the Gaussian 90(TM) system (copyright 1990, Gaussian, Inc.),
 the Gaussian 88(TM) system (copyright 1988, Gaussian, Inc.),
 the Gaussian 86(TM) system (copyright 1986, Carnegie Mellon
 University), and the Gaussian 82(TM) system (copyright 1983,
 Carnegie Mellon University). Gaussian is a federally registered
 trademark of Gaussian, Inc.
  
 This software contains proprietary and confidential information,
 including trade secrets, belonging to Gaussian, Inc.
  
 This software is provided under written license and may be
 used, copied, transmitted, or stored only in accord with that
 written license.
  
 The following legend is applicable only to US Government
 contracts under FAR:
  
                    RESTRICTED RIGHTS LEGEND
  
 Use, reproduction and disclosure by the US Government is
 subject to restrictions as set forth in subparagraphs (a)
 and (c) of the Commercial Computer Software - Restricted
 Rights clause in FAR 52.227-19.
  
 Gaussian, Inc.
 340 Quinnipiac St., Bldg. 40, Wallingford CT 06492
  
  
 ---------------------------------------------------------------
 Warning -- This program may not be used in any manner that
 competes with the business of Gaussian, Inc. or will provide
 assistance to any competitor of Gaussian, Inc.  The licensee
 of this program is prohibited from giving any competitor of
 Gaussian, Inc. access to this program.  By using this program,
 the user acknowledges that Gaussian, Inc. is engaged in the
 business of creating and licensing software in the field of
 computational chemistry and represents and warrants to the
 licensee that it is not a competitor of Gaussian, Inc. and that
 it will not use this program in any manner prohibited above.
 ---------------------------------------------------------------
  

 Cite this work as:
 Gaussian 16, Revision C.01,
 M. J. Frisch, G. W. Trucks, H. B. Schlegel, G. E. Scuseria, 
 M. A. Robb, J. R. Cheeseman, G. Scalmani, V. Barone, 
 G. A. Petersson, H. Nakatsuji, X. Li, M. Caricato, A. V. Marenich, 
 J. Bloino, B. G. Janesko, R. Gomperts, B. Mennucci, H. P. Hratchian, 
 J. V. Ortiz, A. F. Izmaylov, J. L. Sonnenberg, D. Williams-Young, 
 F. Ding, F. Lipparini, F. Egidi, J. Goings, B. Peng, A. Petrone, 
 T. Henderson, D. Ranasinghe, V. G. Zakrzewski, J. Gao, N. Rega, 
 G. Zheng, W. Liang, M. Hada, M. Ehara, K. Toyota, R. Fukuda, 
 J. Hasegawa, M. Ishida, T. Nakajima, Y. Honda, O. Kitao, H. Nakai, 
 T. Vreven, K. Throssell, J. A. Montgomery, Jr., J. E. Peralta, 
 F. Ogliaro, M. J. Bearpark, J. J. Heyd, E. N. Brothers, K. N. Kudin, 
 V. N. Staroverov, T. A. Keith, R. Kobayashi, J. Normand, 
 K. Raghavachari, A. P. Rendell, J. C. Burant, S. S. Iyengar, 
 J. Tomasi, M. Cossi, J. M. Millam, M. Klene, C. Adamo, R. Cammi, 
 J. W. Ochterski, R. L. Martin, K. Morokuma, O. Farkas, 
 J. B. Foresman, and D. J. Fox, Gaussian, Inc., Wallingford CT, 2019.
 
 ******************************************
 Gaussian 16:  EM64W-G16RevC.01 30-May-2019
                13-Nov-2025 
 ******************************************
 %mem=6GB
 %chk=C:\Users\al6323\OneDrive - Imperial College London\Desktop\TSR20251113\13-d
 ioxole_opt+freq_PM6.chk
 %nprocshared=8
 Will use up to    8 processors via shared memory.
 Default route: MaxDisk=10GB
 ----------------------------------------------------------------------
 # opt=(cartesian,maxcycles=200) freq pm6 geom=connectivity scf=(xqc,ti
 ght)
 ----------------------------------------------------------------------
 1/6=200,10=7,18=10,26=1,38=1,57=2/1,3;
 2/12=2,17=6,18=5,29=2,40=1/2;
 3/5=2,25=1,41=3900000,71=1/1,2,3;
 4/35=1/1;
 5/5=2,8=3,13=1,32=2,35=1,38=5/2,8;
 6/7=2,8=2,9=2,10=2,28=1/1;
 7/7=1,29=1/1,2,3,16;
 1/6=200,10=7,18=10,26=1/3(2);
 2/29=1/2;
 99/12=1/99;
 2/29=1/2;
 3/5=2,25=1,41=3900000,71=1,135=20/1,2,3;
 4/5=5,16=3,35=1/1;
 5/5=2,8=3,13=1,32=2,35=1,38=5/2,8;
 7/7=1/1,2,3,16;
 1/6=200,18=10,26=1/3(-5);
 2/29=1/2;
 6/7=2,8=2,9=2,10=2,19=2,28=1/1;
 99/9=1,12=1/99;
 -------------------
 Title Card Required
 -------------------
 Symbolic Z-matrix:
 Charge =  0 Multiplicity = 1
 C                    -0.66804  -0.12416  -0.43205 
 O                     0.53819  -0.26182   0.31534 
 C                     1.0184    1.08784   0.16591 
 C                    -1.06083   1.15929  -0.41911 
 H                    -1.1797   -0.92105  -0.93011 
 H                     1.7876    1.31611   0.87381 
 H                     1.40616   1.21648  -0.82303 
 H                    -1.93363   1.54239  -0.90528 
 O                    -0.13401   1.9346    0.33748 
 

 GradGradGradGradGradGradGradGradGradGradGradGradGradGradGradGradGradGrad
 Berny optimization.
 Initialization pass.
 No Z-matrix variables, so optimization will use Cartesian coordinates.
 Trust Radius=3.00D-01 FncErr=1.00D-07 GrdErr=1.00D-07 EigMax=2.50D+02 EigMin=1.00D-04
 Number of steps in this run=    100 maximum allowed number of steps=    100.
 GradGradGradGradGradGradGradGradGradGradGradGradGradGradGradGradGradGrad

 ---------------------------------------------------------------------------------------------------
                            Z-MATRIX (ANGSTROMS AND DEGREES)
   CD    Cent   Atom    N1       Length/X        N2       Alpha/Y        N3        Beta/Z          J
 ---------------------------------------------------------------------------------------------------
      1      1  C        0  -0.668038         -0.124158         -0.432050
      2      2  O        0   0.538190         -0.261816          0.315343
      3      3  C        0   1.018403          1.087838          0.165907
      4      4  C        0  -1.060832          1.159286         -0.419114
      5      5  H        0  -1.179698         -0.921053         -0.930109
      6      6  H        0   1.787598          1.316113          0.873811
      7      7  H        0   1.406164          1.216478         -0.823028
      8      8  H        0  -1.933627          1.542393         -0.905280
      9      9  O        0  -0.134014          1.934596          0.337481
 ---------------------------------------------------------------------------------------------------
                         Z-Matrix orientation:                         
 ---------------------------------------------------------------------
 Center     Atomic      Atomic             Coordinates (Angstroms)
 Number     Number       Type             X           Y           Z
 ---------------------------------------------------------------------
      1          6           0       -0.668038   -0.124158   -0.432050
      2          8           0        0.538190   -0.261816    0.315343
      3          6           0        1.018403    1.087838    0.165907
      4          6           0       -1.060832    1.159286   -0.419114
      5          1           0       -1.179698   -0.921053   -0.930109
      6          1           0        1.787598    1.316113    0.873811
      7          1           0        1.406164    1.216478   -0.823028
      8          1           0       -1.933627    1.542393   -0.905280
      9          8           0       -0.134014    1.934596    0.337481
 ---------------------------------------------------------------------
                    Distance matrix (angstroms):
                    1          2          3          4          5
     1  C    0.000000
     2  O    1.425669   0.000000
     3  C    2.161150   1.440313   0.000000
     4  C    1.342268   2.261820   2.161150   0.000000
     5  H    1.070000   2.221910   3.173096   2.145473   0.000000
     6  H    3.132061   2.088723   1.070000   3.132061   4.130846
     7  H    2.500497   2.057820   1.070000   2.500497   3.356663
     8  H    2.145473   3.294688   3.173096   1.070000   2.576353
     9  O    2.261820   2.297080   1.440313   1.425669   3.294688
                    6          7          8          9
     6  H    0.000000
     7  H    1.742034   0.000000
     8  H    4.130846   3.356663   0.000000
     9  O    2.088723   2.057820   2.221910   0.000000
 Stoichiometry    C3H4O2
 Framework group  CS[SG(CH2),X(C2H2O2)]
 Deg. of freedom    12
 Full point group                 CS      NOp   2
 Largest Abelian subgroup         CS      NOp   2
 Largest concise Abelian subgroup CS      NOp   2
                         Standard orientation:                         
 ---------------------------------------------------------------------
 Center     Atomic      Atomic             Coordinates (Angstroms)
 Number     Number       Type             X           Y           Z
 ---------------------------------------------------------------------
      1          6           0        0.152809    0.954779    0.671134
      2          8           0        0.152809   -0.388581    1.148540
      3          6           0       -0.458364   -1.006500    0.000000
      4          6           0        0.152809    0.954779   -0.671134
      5          1           0        0.149462    1.828935    1.288176
      6          1           0       -0.320903   -2.067634    0.000000
      7          1           0       -1.506498   -0.791292    0.000000
      8          1           0        0.149462    1.828935   -1.288176
      9          8           0        0.152809   -0.388581   -1.148540
 ---------------------------------------------------------------------
 Rotational constants (GHZ):           8.9019953           8.3387911           4.6418820
 Standard basis: VSTO-6G (5D, 7F)
 There are    14 symmetry adapted cartesian basis functions of A'  symmetry.
 There are    10 symmetry adapted cartesian basis functions of A"  symmetry.
 There are    14 symmetry adapted basis functions of A'  symmetry.
 There are    10 symmetry adapted basis functions of A"  symmetry.
    24 basis functions,   144 primitive gaussians,    24 cartesian basis functions
    14 alpha electrons       14 beta electrons
       nuclear repulsion energy       117.7764755382 Hartrees.
 Integral buffers will be    131072 words long.
 Regular integral format.
 Two-electron integral symmetry is turned off.
 Do NDO integrals.
 One-electron integrals computed using PRISM.
 NBasis=    24 RedAO= T EigKep=  1.00D+00  NBF=    14    10
 NBsUse=    24 1.00D-06 EigRej= -1.00D+00 NBFU=    14    10
 Simple Huckel Guess.
 Initial guess orbital symmetries:
       Occupied  (A') (A") (A') (A') (A") (A') (A') (A") (A') (A")
                 (A') (A') (A") (A')
       Virtual   (A") (A') (A") (A") (A') (A') (A') (A") (A') (A")
 The electronic state of the initial guess is 1-A'.
 Keep J ints in memory in canonical form, NReq=860952.
 Overlap will be assumed to be unity.
 Requested convergence on RMS density matrix=1.00D-08 within  32 cycles.
 Requested convergence on MAX density matrix=1.00D-06.
 Requested convergence on             energy=1.00D-06.
 No special actions if energy rises.
 Fock symm off for IB=2 I1=    1 I=   15 J=   10 Cut=1.00D-07 Err=5.83D-03
 Fock matrix is not symmetric: symmetry in diagonalization turned off.
 SCF Done:  E(RPM6) = -0.600635910189E-01 A.U. after   13 cycles
            NFock= 12  Conv=0.94D-08     -V/T= 0.9990
 QCSCF skips out because SCF is already converged.

 **********************************************************************

            Population analysis using the SCF Density.

 **********************************************************************

 Orbital symmetries:
       Occupied  (A') (A") (A') (A') (A") (A') (A') (A") (A') (A")
                 (A') (A') (A") (A')
       Virtual   (A") (A") (A') (A') (A") (A") (A') (A') (A') (A")
 The electronic state is 1-A'.
 Alpha  occ. eigenvalues --   -1.20523  -1.07786  -0.98443  -0.90388  -0.78810
 Alpha  occ. eigenvalues --   -0.67113  -0.65443  -0.59609  -0.56706  -0.51830
 Alpha  occ. eigenvalues --   -0.50668  -0.45860  -0.44186  -0.33928
 Alpha virt. eigenvalues --    0.01217   0.05791   0.06735   0.09935   0.13342
 Alpha virt. eigenvalues --    0.16411   0.17629   0.18386   0.19172   0.19447
          Condensed to atoms (all electrons):
               1          2          3          4          5          6
     1  C    4.038111   0.000000   0.000000   0.000000   0.000000   0.000000
     2  O    0.000000   6.360722   0.000000   0.000000   0.000000   0.000000
     3  C    0.000000   0.000000   3.818971   0.000000   0.000000   0.000000
     4  C    0.000000   0.000000   0.000000   4.038111   0.000000   0.000000
     5  H    0.000000   0.000000   0.000000   0.000000   0.818578   0.000000
     6  H    0.000000   0.000000   0.000000   0.000000   0.000000   0.854490
     7  H    0.000000   0.000000   0.000000   0.000000   0.000000   0.000000
     8  H    0.000000   0.000000   0.000000   0.000000   0.000000   0.000000
     9  O    0.000000   0.000000   0.000000   0.000000   0.000000   0.000000
               7          8          9
     1  C    0.000000   0.000000   0.000000
     2  O    0.000000   0.000000   0.000000
     3  C    0.000000   0.000000   0.000000
     4  C    0.000000   0.000000   0.000000
     5  H    0.000000   0.000000   0.000000
     6  H    0.000000   0.000000   0.000000
     7  H    0.891716   0.000000   0.000000
     8  H    0.000000   0.818578   0.000000
     9  O    0.000000   0.000000   6.360722
 Mulliken charges:
               1
     1  C   -0.038111
     2  O   -0.360722
     3  C    0.181029
     4  C   -0.038111
     5  H    0.181422
     6  H    0.145510
     7  H    0.108284
     8  H    0.181422
     9  O   -0.360722
 Sum of Mulliken charges =   0.00000
 Mulliken charges with hydrogens summed into heavy atoms:
               1
     1  C    0.143311
     2  O   -0.360722
     3  C    0.434822
     4  C    0.143311
     9  O   -0.360722
 Charge=              0.0000 electrons
 Dipole moment (field-independent basis, Debye):
    X=             -1.5606    Y=              1.0936    Z=              0.0000  Tot=              1.9057
 N-N= 1.177764755382D+02 E-N=-1.556984798793D+02  KE=-6.054872138500D+01
 Symmetry A'   KE=-3.645418005964D+01
 Symmetry A"   KE=-2.409454132536D+01
 Calling FoFJK, ICntrl=      2127 FMM=F ISym2X=1 I1Cent= 0 IOpClX= 0 NMat=1 NMatS=1 NMatT=0.
 ***** Axes restored to original set *****
 -------------------------------------------------------------------
 Center     Atomic                   Forces (Hartrees/Bohr)
 Number     Number              X              Y              Z
 -------------------------------------------------------------------
      1        6          -0.008585936   -0.011582981    0.001239344
      2        8          -0.012647375   -0.012691340   -0.017852301
      3        6           0.027492498    0.008224688    0.018780774
      4        6          -0.013590498    0.004769320    0.001404158
      5        1           0.011395730   -0.011404382    0.008322477
      6        1           0.002238386    0.000511888    0.017180440
      7        1           0.008272658    0.002733234   -0.019983859
      8        1           0.003108817    0.015672931    0.008595389
      9        8          -0.017684281    0.003766641   -0.017686421
 -------------------------------------------------------------------
 Cartesian Forces:  Max     0.027492498 RMS     0.012632375

 GradGradGradGradGradGradGradGradGradGradGradGradGradGradGradGradGradGrad
 Berny optimization.
 Search for a local minimum.
 Step number   1 out of a maximum of  100
 All quantities printed in internal units (Hartrees-Bohrs-Radians)
 Second derivative matrix not updated -- first step.
 ITU=  0
     Eigenvalues ---    0.01392   0.02183   0.06551   0.07261   0.08795
     Eigenvalues ---    0.09556   0.09877   0.13607   0.15981   0.18209
     Eigenvalues ---    0.18781   0.30728   0.33859   0.41910   0.65878
     Eigenvalues ---    0.94888   1.00695   1.08360   1.13147   1.31798
     Eigenvalues ---    1.56147
 RFO step:  Lambda=-2.34096081D-02 EMin= 1.39159522D-02
 ClnCor:  largest displacement from symmetrization is 4.97D-14 for atom     8.
 Linear search not attempted -- first point.
 Maximum step size (   0.300) exceeded in Quadratic search.
    -- Step size scaled by   0.525
 ClnCor:  largest displacement from symmetrization is 6.27D-15 for atom     6.
 B after Tr=    -0.001705   -0.000308   -0.021255
         Rot=    0.999999    0.000401   -0.001309   -0.000013 Ang=   0.16 deg.
 Variable       Old X    -DE/DX   Delta X   Delta X   Delta X     New X
                                 (Linear)    (Quad)   (Total)
    X1       -1.26241  -0.00859   0.00000  -0.04173  -0.04554  -1.30795
    Y1       -0.23462  -0.01158   0.00000  -0.02102  -0.02201  -0.25663
    Z1       -0.81646   0.00124   0.00000   0.00664  -0.01099  -0.82744
    X2        1.01703  -0.01265   0.00000   0.00892   0.00857   1.02560
    Y2       -0.49476  -0.01269   0.00000  -0.00807  -0.00794  -0.50270
    Z2        0.59591  -0.01785   0.00000  -0.08251  -0.10605   0.48987
    X3        1.92450   0.02749   0.00000   0.04745   0.04657   1.97107
    Y3        2.05572   0.00822   0.00000   0.01427   0.01429   2.07000
    Z3        0.31352   0.01878   0.00000   0.02467  -0.00340   0.31011
    X4       -2.00468  -0.01359   0.00000  -0.04631  -0.05012  -2.05480
    Y4        2.19073   0.00477   0.00000  -0.00606  -0.00705   2.18369
    Z4       -0.79201   0.00140   0.00000   0.00680  -0.01084  -0.80285
    X5       -2.22931   0.01140   0.00000   0.00158  -0.00447  -2.23378
    Y5       -1.74054  -0.01140   0.00000  -0.08769  -0.08940  -1.82993
    Z5       -1.75765   0.00832   0.00000   0.07615   0.06220  -1.69545
    X6        3.37807   0.00224   0.00000  -0.03286  -0.02995   3.34813
    Y6        2.48709   0.00051   0.00000  -0.01150  -0.01028   2.47681
    Z6        1.65126   0.01718   0.00000   0.14282   0.11082   1.76208
    X7        2.65727   0.00827   0.00000   0.13205   0.12628   2.78354
    Y7        2.29881   0.00273   0.00000   0.04010   0.03864   2.33745
    Z7       -1.55530  -0.01998   0.00000   0.03070   0.00028  -1.55502
    X8       -3.65402   0.00311   0.00000  -0.04734  -0.05338  -3.70741
    Y8        2.91470   0.01567   0.00000   0.07213   0.07042   2.98512
    Z8       -1.71073   0.00860   0.00000   0.07776   0.06381  -1.64692
    X9       -0.25325  -0.01768   0.00000   0.00241   0.00206  -0.25119
    Y9        3.65586   0.00377   0.00000   0.01320   0.01333   3.66919
    Z9        0.63775  -0.01769   0.00000  -0.08229  -0.10583   0.53191
         Item               Value     Threshold  Converged?
 Maximum Force            0.027492     0.000450     NO 
 RMS     Force            0.012632     0.000300     NO 
 Maximum Displacement     0.126276     0.001800     NO 
 RMS     Displacement     0.056105     0.001200     NO 
 Predicted change in Energy=-1.013031D-02
 GradGradGradGradGradGradGradGradGradGradGradGradGradGradGradGradGradGrad

                          Input orientation:                          
 ---------------------------------------------------------------------
 Center     Atomic      Atomic             Coordinates (Angstroms)
 Number     Number       Type             X           Y           Z
 ---------------------------------------------------------------------
      1          6           0       -0.692138   -0.135805   -0.437864
      2          8           0        0.542724   -0.266020    0.259226
      3          6           0        1.043045    1.095398    0.164105
      4          6           0       -1.087354    1.155557   -0.424849
      5          1           0       -1.182065   -0.968359   -0.897194
      6          1           0        1.771751    1.310672    0.932453
      7          1           0        1.472986    1.236928   -0.822882
      8          1           0       -1.961877    1.579658   -0.871513
      9          8           0       -0.132926    1.941651    0.281477
 ---------------------------------------------------------------------
                    Distance matrix (angstroms):
                    1          2          3          4          5
     1  C    0.000000
     2  O    1.423999   0.000000
     3  C    2.211129   1.453557   0.000000
     4  C    1.350549   2.268478   2.211129   0.000000
     5  H    1.069654   2.192142   3.215054   2.177866   0.000000
     6  H    3.168725   2.109431   1.080608   3.168725   4.155313
     7  H    2.592373   2.072486   1.085829   2.592373   3.452262
     8  H    2.177866   3.310305   3.215054   1.069654   2.664799
     9  O    2.268478   2.308854   1.453557   1.423999   3.310305
                    6          7          8          9
     6  H    0.000000
     7  H    1.782106   0.000000
     8  H    4.155313   3.452262   0.000000
     9  O    2.109431   2.072486   2.192142   0.000000
 Stoichiometry    C3H4O2
 Framework group  CS[SG(CH2),X(C2H2O2)]
 Deg. of freedom    12
 Full point group                 CS      NOp   2
 Largest Abelian subgroup         CS      NOp   2
 Largest concise Abelian subgroup CS      NOp   2
                         Standard orientation:                         
 ---------------------------------------------------------------------
 Center     Atomic      Atomic             Coordinates (Angstroms)
 Number     Number       Type             X           Y           Z
 ---------------------------------------------------------------------
      1          6           0        0.137965    0.972281    0.675274
      2          8           0        0.137965   -0.368683    1.154427
      3          6           0       -0.411432   -1.060268    0.000000
      4          6           0        0.137965    0.972281   -0.675274
      5          1           0        0.124591    1.816181    1.332400
      6          1           0       -0.154272   -2.109831    0.000000
      7          1           0       -1.489341   -0.929369    0.000000
      8          1           0        0.124591    1.816181   -1.332400
      9          8           0        0.137965   -0.368683   -1.154427
 ---------------------------------------------------------------------
 Rotational constants (GHZ):           8.7302658           8.3051513           4.5387680
 Standard basis: VSTO-6G (5D, 7F)
 There are    14 symmetry adapted cartesian basis functions of A'  symmetry.
 There are    10 symmetry adapted cartesian basis functions of A"  symmetry.
 There are    14 symmetry adapted basis functions of A'  symmetry.
 There are    10 symmetry adapted basis functions of A"  symmetry.
    24 basis functions,   144 primitive gaussians,    24 cartesian basis functions
    14 alpha electrons       14 beta electrons
       nuclear repulsion energy       117.3157984670 Hartrees.
 Integral buffers will be    131072 words long.
 Regular integral format.
 Two-electron integral symmetry is turned off.
 Do NDO integrals.
 One-electron integrals computed using PRISM.
 NBasis=    24 RedAO= T EigKep=  1.00D+00  NBF=    14    10
 NBsUse=    24 1.00D-06 EigRej= -1.00D+00 NBFU=    14    10
 Initial guess from the checkpoint file:  "C:\Users\al6323\OneDrive - Imperial College London\Desktop\TSR20251113\13-dioxole_opt+freq_PM6.chk"
 B after Tr=     0.000000    0.000000    0.000000
         Rot=    0.999845    0.000000    0.000000   -0.017627 Ang=  -2.02 deg.
 Initial guess orbital symmetries:
       Occupied  (A') (A") (A') (A') (A") (A') (A') (A") (A') (A")
                 (A') (A') (A") (A')
       Virtual   (A") (A") (A') (A') (A") (A") (A') (A') (A') (A")
 Keep J ints in memory in canonical form, NReq=860952.
 Overlap will be assumed to be unity.
 Requested convergence on RMS density matrix=1.00D-08 within  32 cycles.
 Requested convergence on MAX density matrix=1.00D-06.
 Requested convergence on             energy=1.00D-06.
 No special actions if energy rises.
 Fock symm off for IB=2 I1=    1 I=   15 J=   10 Cut=1.00D-07 Err=5.21D-03
 Fock matrix is not symmetric: symmetry in diagonalization turned off.
 SCF Done:  E(RPM6) = -0.702992450596E-01 A.U. after   12 cycles
            NFock= 11  Conv=0.37D-08     -V/T= 0.9988
 QCSCF skips out because SCF is already converged.
 Calling FoFJK, ICntrl=      2127 FMM=F ISym2X=1 I1Cent= 0 IOpClX= 0 NMat=1 NMatS=1 NMatT=0.
 ***** Axes restored to original set *****
 -------------------------------------------------------------------
 Center     Atomic                   Forces (Hartrees/Bohr)
 Number     Number              X              Y              Z
 -------------------------------------------------------------------
      1        6          -0.004491310    0.002784438    0.002078121
      2        8          -0.009252926   -0.004185164   -0.014959999
      3        6           0.011695279    0.003483790    0.009475928
      4        6          -0.002152138   -0.004858756    0.002001086
      5        1           0.009303314   -0.007508577    0.007561768
      6        1          -0.003455985   -0.001171298    0.011271612
      7        1           0.004897782    0.001602232   -0.010247459
      8        1           0.003550645    0.011288145    0.007751221
      9        8          -0.010094662   -0.001434811   -0.014932278
 -------------------------------------------------------------------
 Cartesian Forces:  Max     0.014959999 RMS     0.007767970

 GradGradGradGradGradGradGradGradGradGradGradGradGradGradGradGradGradGrad
 Berny optimization.
 Search for a local minimum.
 Step number   2 out of a maximum of  100
 All quantities printed in internal units (Hartrees-Bohrs-Radians)
 Update second derivatives using D2CorN and points    1    2
 DE= -1.02D-02 DEPred=-1.01D-02 R= 1.01D+00
 TightC=F SS=  1.41D+00  RLast= 2.92D-01 DXNew= 5.0454D-01 8.7459D-01
 Trust test= 1.01D+00 RLast= 2.92D-01 DXMaxT set to 5.05D-01
 ITU=  1  0
 Linear search step of   0.535 exceeds DXMaxT=   0.505 but not scaled.
 Quartic linear search produced a step of  1.83656.
 ClnCor:  largest displacement from symmetrization is 2.12D-14 for atom     8.
 B after Tr=     0.000000    0.000000    0.000000
         Rot=    1.000000    0.000000    0.000000    0.000000 Ang=   0.00 deg.
 Variable       Old X    -DE/DX   Delta X   Delta X   Delta X     New X
                                 (Linear)    (Quad)   (Total)
    X1       -1.30795  -0.00449  -0.08364   0.00000  -0.08364  -1.39159
    Y1       -0.25663   0.00278  -0.04042   0.00000  -0.04042  -0.29706
    Z1       -0.82744   0.00208  -0.02018   0.00000  -0.02018  -0.84762
    X2        1.02560  -0.00925   0.01573   0.00000   0.01573   1.04133
    Y2       -0.50270  -0.00419  -0.01459   0.00000  -0.01459  -0.51729
    Z2        0.48987  -0.01496  -0.19476   0.00000  -0.19476   0.29511
    X3        1.97107   0.01170   0.08553   0.00000   0.08553   2.05660
    Y3        2.07000   0.00348   0.02624   0.00000   0.02624   2.09624
    Z3        0.31011   0.00948  -0.00625   0.00000  -0.00625   0.30386
    X4       -2.05480  -0.00215  -0.09205   0.00000  -0.09205  -2.14685
    Y4        2.18369  -0.00486  -0.01294   0.00000  -0.01294   2.17074
    Z4       -0.80285   0.00200  -0.01990   0.00000  -0.01990  -0.82275
    X5       -2.23378   0.00930  -0.00822   0.00000  -0.00822  -2.24200
    Y5       -1.82993  -0.00751  -0.16418   0.00000  -0.16418  -1.99412
    Z5       -1.69545   0.00756   0.11424   0.00000   0.11424  -1.58121
    X6        3.34813  -0.00346  -0.05500   0.00000  -0.05500   3.29313
    Y6        2.47681  -0.00117  -0.01888   0.00000  -0.01888   2.45793
    Z6        1.76208   0.01127   0.20352   0.00000   0.20352   1.96560
    X7        2.78354   0.00490   0.23191   0.00000   0.23191   3.01545
    Y7        2.33745   0.00160   0.07097   0.00000   0.07097   2.40843
    Z7       -1.55502  -0.01025   0.00051   0.00000   0.00051  -1.55451
    X8       -3.70741   0.00355  -0.09804   0.00000  -0.09804  -3.80545
    Y8        2.98512   0.01129   0.12933   0.00000   0.12933   3.11445
    Z8       -1.64692   0.00775   0.11719   0.00000   0.11719  -1.52973
    X9       -0.25119  -0.01009   0.00378   0.00000   0.00378  -0.24742
    Y9        3.66919  -0.00143   0.02448   0.00000   0.02448   3.69367
    Z9        0.53191  -0.01493  -0.19437   0.00000  -0.19437   0.33755
         Item               Value     Threshold  Converged?
 Maximum Force            0.014960     0.000450     NO 
 RMS     Force            0.007768     0.000300     NO 
 Maximum Displacement     0.231913     0.001800     NO 
 RMS     Displacement     0.103040     0.001200     NO 
 Predicted change in Energy=-7.853128D-03
 GradGradGradGradGradGradGradGradGradGradGradGradGradGradGradGradGradGrad

                          Input orientation:                          
 ---------------------------------------------------------------------
 Center     Atomic      Atomic             Coordinates (Angstroms)
 Number     Number       Type             X           Y           Z
 ---------------------------------------------------------------------
      1          6           0       -0.736398   -0.157196   -0.448543
      2          8           0        0.551050   -0.273740    0.156164
      3          6           0        1.088304    1.109282    0.160797
      4          6           0       -1.136065    1.148708   -0.435381
      5          1           0       -1.186413   -1.055241   -0.836743
      6          1           0        1.742648    1.300679    1.040153
      7          1           0        1.595709    1.274484   -0.822613
      8          1           0       -2.013760    1.648095   -0.809496
      9          8           0       -0.130928    1.954606    0.178623
 ---------------------------------------------------------------------
                    Distance matrix (angstroms):
                    1          2          3          4          5
     1  C    0.000000
     2  O    1.427156   0.000000
     3  C    2.303214   1.483717   0.000000
     4  C    1.365757   2.284653   2.303214   0.000000
     5  H    1.076893   2.148345   3.294630   2.240763   0.000000
     6  H    3.238407   2.163363   1.112684   3.238407   4.201487
     7  H    2.761948   2.108629   1.118860   2.761948   3.628777
     8  H    2.240763   3.347267   3.294630   1.076893   2.827237
     9  O    2.284653   2.330478   1.483717   1.427156   3.347267
                    6          7          8          9
     6  H    0.000000
     7  H    1.868736   0.000000
     8  H    4.201487   3.628777   0.000000
     9  O    2.163363   2.108629   2.148345   0.000000
 Stoichiometry    C3H4O2
 Framework group  CS[SG(CH2),X(C2H2O2)]
 Deg. of freedom    12
 Full point group                 CS      NOp   2
 Largest Abelian subgroup         CS      NOp   2
 Largest concise Abelian subgroup CS      NOp   2
                         Standard orientation:                         
 ---------------------------------------------------------------------
 Center     Atomic      Atomic             Coordinates (Angstroms)
 Number     Number       Type             X           Y           Z
 ---------------------------------------------------------------------
      1          6           0        0.107242    1.005649    0.682879
      2          8           0        0.107242   -0.337520    1.165239
      3          6           0       -0.315340   -1.153031    0.000000
      4          6           0        0.107242    1.005649   -0.682879
      5          1           0        0.082019    1.796270    1.413619
      6          1           0        0.159057   -2.159516    0.000000
      7          1           0       -1.433817   -1.182312    0.000000
      8          1           0        0.082019    1.796270   -1.413619
      9          8           0        0.107242   -0.337520   -1.165239
 ---------------------------------------------------------------------
 Rotational constants (GHZ):           8.3654131           8.2110501           4.3501898
 Standard basis: VSTO-6G (5D, 7F)
 There are    14 symmetry adapted cartesian basis functions of A'  symmetry.
 There are    10 symmetry adapted cartesian basis functions of A"  symmetry.
 There are    14 symmetry adapted basis functions of A'  symmetry.
 There are    10 symmetry adapted basis functions of A"  symmetry.
    24 basis functions,   144 primitive gaussians,    24 cartesian basis functions
    14 alpha electrons       14 beta electrons
       nuclear repulsion energy       116.3221108399 Hartrees.
 Integral buffers will be    131072 words long.
 Regular integral format.
 Two-electron integral symmetry is turned off.
 Do NDO integrals.
 One-electron integrals computed using PRISM.
 NBasis=    24 RedAO= T EigKep=  1.00D+00  NBF=    14    10
 NBsUse=    24 1.00D-06 EigRej= -1.00D+00 NBFU=    14    10
 Initial guess from the checkpoint file:  "C:\Users\al6323\OneDrive - Imperial College London\Desktop\TSR20251113\13-dioxole_opt+freq_PM6.chk"
 B after Tr=     0.000000    0.000000    0.000000
         Rot=    0.999468    0.000000    0.000000   -0.032608 Ang=  -3.74 deg.
 Initial guess orbital symmetries:
       Occupied  (A') (A") (A') (A') (A") (A') (A') (A") (A') (A")
                 (A') (A') (A") (A')
       Virtual   (A") (A") (A') (A') (A") (A") (A') (A') (A') (A")
 Keep J ints in memory in canonical form, NReq=860952.
 Overlap will be assumed to be unity.
 Requested convergence on RMS density matrix=1.00D-08 within  32 cycles.
 Requested convergence on MAX density matrix=1.00D-06.
 Requested convergence on             energy=1.00D-06.
 No special actions if energy rises.
 Fock symm off for IB=2 I1=    1 I=   15 J=   11 Cut=1.00D-07 Err=8.83D-03
 Fock matrix is not symmetric: symmetry in diagonalization turned off.
 SCF Done:  E(RPM6) = -0.777025918009E-01 A.U. after   12 cycles
            NFock= 11  Conv=0.92D-08     -V/T= 0.9987
 QCSCF skips out because SCF is already converged.
 Calling FoFJK, ICntrl=      2127 FMM=F ISym2X=1 I1Cent= 0 IOpClX= 0 NMat=1 NMatS=1 NMatT=0.
 ***** Axes restored to original set *****
 -------------------------------------------------------------------
 Center     Atomic                   Forces (Hartrees/Bohr)
 Number     Number              X              Y              Z
 -------------------------------------------------------------------
      1        6           0.002960555    0.025054112    0.004223813
      2        8          -0.004530939    0.012763406   -0.010250306
      3        6          -0.013581136   -0.004113516   -0.004260466
      4        6           0.016498095   -0.019179512    0.003777983
      5        1           0.006880834    0.001747310    0.007090713
      6        1          -0.015191349   -0.004596309   -0.005253361
      7        1          -0.003086148   -0.001025991    0.008084807
      8        1           0.006720180    0.002272244    0.007096003
      9        8           0.003329908   -0.012921742   -0.010509186
 -------------------------------------------------------------------
 Cartesian Forces:  Max     0.025054112 RMS     0.009929286

 GradGradGradGradGradGradGradGradGradGradGradGradGradGradGradGradGradGrad
 Berny optimization.
 Search for a local minimum.
 Step number   3 out of a maximum of  100
 All quantities printed in internal units (Hartrees-Bohrs-Radians)
 Update second derivatives using D2CorN and points    2    3
 ITU=  0  1  0
     Eigenvalues ---    0.01795   0.02205   0.06311   0.06612   0.08751
     Eigenvalues ---    0.09968   0.09975   0.13665   0.15775   0.18420
     Eigenvalues ---    0.18823   0.30773   0.33841   0.42477   0.65805
     Eigenvalues ---    0.94001   1.00814   1.08230   1.13052   1.31786
     Eigenvalues ---    1.56236
 RFO step:  Lambda=-1.00832103D-02 EMin= 1.79488536D-02
 ClnCor:  largest displacement from symmetrization is 1.72D-14 for atom     9.
 Quartic linear search produced a step of -0.02776.
 ClnCor:  largest displacement from symmetrization is 5.40D-15 for atom     8.
 B after Tr=     0.006271    0.002222   -0.030066
         Rot=    0.999999    0.000475   -0.001551   -0.000016 Ang=   0.19 deg.
 Variable       Old X    -DE/DX   Delta X   Delta X   Delta X     New X
                                 (Linear)    (Quad)   (Total)
    X1       -1.39159   0.00296   0.00232   0.01488   0.02090  -1.37069
    Y1       -0.29706   0.02505   0.00112   0.02912   0.03163  -0.26543
    Z1       -0.84762   0.00422   0.00056   0.01137  -0.01361  -0.86124
    X2        1.04133  -0.00453  -0.00044   0.01357   0.02006   1.06139
    Y2       -0.51729   0.01276   0.00041   0.01261   0.01546  -0.50183
    Z2        0.29511  -0.01025   0.00541  -0.09597  -0.12342   0.17168
    X3        2.05660  -0.01358  -0.00237  -0.04277  -0.03808   2.01851
    Y3        2.09624  -0.00411  -0.00073  -0.01283  -0.01101   2.08523
    Z3        0.30386  -0.00426   0.00017  -0.02543  -0.06354   0.24032
    X4       -2.14685   0.01650   0.00256   0.02869   0.03494  -2.11191
    Y4        2.17074  -0.01918   0.00036  -0.01601  -0.01426   2.15648
    Z4       -0.82275   0.00378   0.00055   0.01092  -0.01408  -0.83683
    X5       -2.24200   0.00688   0.00023   0.03496   0.03708  -2.20491
    Y5       -1.99412   0.00175   0.00456  -0.03879  -0.03344  -2.02756
    Z5       -1.58121   0.00709  -0.00317   0.15023   0.12577  -1.45544
    X6        3.29313  -0.01519   0.00153  -0.21775  -0.20360   3.08953
    Y6        2.45793  -0.00460   0.00052  -0.06785  -0.06304   2.39489
    Z6        1.96560  -0.00525  -0.00565   0.11947   0.07193   2.03753
    X7        3.01545  -0.00309  -0.00644   0.09631   0.09140   3.10685
    Y7        2.40843  -0.00103  -0.00197   0.02891   0.02783   2.43626
    Z7       -1.55451   0.00808  -0.00001   0.05597   0.01395  -1.54056
    X8       -3.80545   0.00672   0.00272   0.00811   0.01273  -3.79273
    Y8        3.11445   0.00227  -0.00359   0.04894   0.04614   3.16059
    Z8       -1.52973   0.00710  -0.00325   0.15112   0.12658  -1.40315
    X9       -0.24742   0.00333  -0.00010   0.01777   0.02458  -0.22284
    Y9        3.69367  -0.01292  -0.00068  -0.00108   0.00069   3.69436
    Z9        0.33755  -0.01051   0.00540  -0.09611  -0.12357   0.21398
         Item               Value     Threshold  Converged?
 Maximum Force            0.025054     0.000450     NO 
 RMS     Force            0.009929     0.000300     NO 
 Maximum Displacement     0.203598     0.001800     NO 
 RMS     Displacement     0.071272     0.001200     NO 
 Predicted change in Energy=-5.855298D-03
 GradGradGradGradGradGradGradGradGradGradGradGradGradGradGradGradGradGrad

                          Input orientation:                          
 ---------------------------------------------------------------------
 Center     Atomic      Atomic             Coordinates (Angstroms)
 Number     Number       Type             X           Y           Z
 ---------------------------------------------------------------------
      1          6           0       -0.725340   -0.140459   -0.455747
      2          8           0        0.561663   -0.265558    0.090850
      3          6           0        1.068152    1.103454    0.127171
      4          6           0       -1.117575    1.141162   -0.442830
      5          1           0       -1.166790   -1.072937   -0.770186
      6          1           0        1.634908    1.267322    1.078216
      7          1           0        1.644075    1.289212   -0.815230
      8          1           0       -2.007025    1.672513   -0.742514
      9          8           0       -0.117922    1.954969    0.113231
 ---------------------------------------------------------------------
                    Distance matrix (angstroms):
                    1          2          3          4          5
     1  C    0.000000
     2  O    1.403849   0.000000
     3  C    2.259142   1.460152   0.000000
     4  C    1.340361   2.254664   2.259142   0.000000
     5  H    1.078548   2.093034   3.246058   2.238709   0.000000
     6  H    3.147326   2.115766   1.119175   3.147326   4.091811
     7  H    2.790576   2.099978   1.119961   2.790576   3.671885
     8  H    2.238709   3.323969   3.246058   1.078548   2.871281
     9  O    2.254664   2.322300   1.460152   1.403849   3.323969
                    6          7          8          9
     6  H    0.000000
     7  H    1.893594   0.000000
     8  H    4.091811   3.671885   0.000000
     9  O    2.115766   2.099978   2.093034   0.000000
 Stoichiometry    C3H4O2
 Framework group  CS[SG(CH2),X(C2H2O2)]
 Deg. of freedom    12
 Full point group                 CS      NOp   2
 Largest Abelian subgroup         CS      NOp   2
 Largest concise Abelian subgroup CS      NOp   2
                         Standard orientation:                         
 ---------------------------------------------------------------------
 Center     Atomic      Atomic             Coordinates (Angstroms)
 Number     Number       Type             X           Y           Z
 ---------------------------------------------------------------------
      1          6           0        0.085614    0.990673    0.670180
      2          8           0        0.085614   -0.324524    1.161150
      3          6           0       -0.262558   -1.138496    0.000000
      4          6           0        0.085614    0.990673   -0.670180
      5          1           0        0.098186    1.750395    1.435641
      6          1           0        0.353625   -2.072771    0.000000
      7          1           0       -1.371847   -1.292741    0.000000
      8          1           0        0.098186    1.750395   -1.435641
      9          8           0        0.085614   -0.324524   -1.161150
 ---------------------------------------------------------------------
 Rotational constants (GHZ):           8.7227867           8.3376383           4.4545243
 Standard basis: VSTO-6G (5D, 7F)
 There are    14 symmetry adapted cartesian basis functions of A'  symmetry.
 There are    10 symmetry adapted cartesian basis functions of A"  symmetry.
 There are    14 symmetry adapted basis functions of A'  symmetry.
 There are    10 symmetry adapted basis functions of A"  symmetry.
    24 basis functions,   144 primitive gaussians,    24 cartesian basis functions
    14 alpha electrons       14 beta electrons
       nuclear repulsion energy       117.1154178687 Hartrees.
 Integral buffers will be    131072 words long.
 Regular integral format.
 Two-electron integral symmetry is turned off.
 Do NDO integrals.
 One-electron integrals computed using PRISM.
 NBasis=    24 RedAO= T EigKep=  1.00D+00  NBF=    14    10
 NBsUse=    24 1.00D-06 EigRej= -1.00D+00 NBFU=    14    10
 Initial guess from the checkpoint file:  "C:\Users\al6323\OneDrive - Imperial College London\Desktop\TSR20251113\13-dioxole_opt+freq_PM6.chk"
 B after Tr=     0.000000    0.000000    0.000000
         Rot=    0.999891    0.000000    0.000000   -0.014787 Ang=  -1.69 deg.
 Initial guess orbital symmetries:
       Occupied  (A') (A") (A') (A') (A") (A') (A') (A") (A') (A')
                 (A") (A') (A") (A')
       Virtual   (A") (A") (A') (A') (A") (A") (A') (A') (A') (A")
 Keep J ints in memory in canonical form, NReq=860952.
 Overlap will be assumed to be unity.
 Requested convergence on RMS density matrix=1.00D-08 within  32 cycles.
 Requested convergence on MAX density matrix=1.00D-06.
 Requested convergence on             energy=1.00D-06.
 No special actions if energy rises.
 Fock symm off for IB=2 I1=    1 I=   15 J=   11 Cut=1.00D-07 Err=5.15D-03
 Fock matrix is not symmetric: symmetry in diagonalization turned off.
 SCF Done:  E(RPM6) = -0.835414748152E-01 A.U. after   12 cycles
            NFock= 11  Conv=0.51D-08     -V/T= 0.9986
 QCSCF skips out because SCF is already converged.
 Calling FoFJK, ICntrl=      2127 FMM=F ISym2X=1 I1Cent= 0 IOpClX= 0 NMat=1 NMatS=1 NMatT=0.
 ***** Axes restored to original set *****
 -------------------------------------------------------------------
 Center     Atomic                   Forces (Hartrees/Bohr)
 Number     Number              X              Y              Z
 -------------------------------------------------------------------
      1        6          -0.005001131   -0.012446700   -0.001676738
      2        8           0.004375642    0.002439409   -0.004679614
      3        6           0.011824532    0.003548686    0.006961940
      4        6          -0.011119463    0.007544819   -0.001475244
      5        1           0.003271549    0.003238684    0.003242013
      6        1          -0.009287892   -0.002748685   -0.009310553
      7        1          -0.003570160   -0.001177672    0.008437043
      8        1           0.004541950   -0.000912322    0.003200175
      9        8           0.004964974    0.000513780   -0.004699022
 -------------------------------------------------------------------
 Cartesian Forces:  Max     0.012446700 RMS     0.006054040

 GradGradGradGradGradGradGradGradGradGradGradGradGradGradGradGradGradGrad
 Berny optimization.
 Search for a local minimum.
 Step number   4 out of a maximum of  100
 All quantities printed in internal units (Hartrees-Bohrs-Radians)
 Update second derivatives using D2CorN and points    3    4
 DE= -5.84D-03 DEPred=-5.86D-03 R= 9.97D-01
 TightC=F SS=  1.41D+00  RLast= 3.70D-01 DXNew= 8.4853D-01 1.1110D+00
 Trust test= 9.97D-01 RLast= 3.70D-01 DXMaxT set to 8.49D-01
 ITU=  1  0  1  0
     Eigenvalues ---    0.01499   0.02210   0.06283   0.06617   0.08736
     Eigenvalues ---    0.09973   0.10006   0.14089   0.15643   0.18215
     Eigenvalues ---    0.18807   0.30806   0.33776   0.42153   0.65805
     Eigenvalues ---    0.93812   1.01116   1.08078   1.13027   1.31746
     Eigenvalues ---    1.56514
 RFO step:  Lambda=-3.60869469D-03 EMin= 1.49921159D-02
 ClnCor:  largest displacement from symmetrization is 3.41D-14 for atom     4.
 Quartic linear search produced a step of  0.17546.
 ClnCor:  largest displacement from symmetrization is 3.41D-15 for atom     7.
 B after Tr=     0.005817    0.002007   -0.022470
         Rot=    0.999998    0.000529   -0.001729   -0.000017 Ang=   0.21 deg.
 Variable       Old X    -DE/DX   Delta X   Delta X   Delta X     New X
                                 (Linear)    (Quad)   (Total)
    X1       -1.37069  -0.00500   0.00367  -0.03716  -0.03059  -1.40129
    Y1       -0.26543  -0.01245   0.00555  -0.02241  -0.01580  -0.28123
    Z1       -0.86124  -0.00168  -0.00239   0.01621  -0.00348  -0.86472
    X2        1.06139   0.00438   0.00352   0.04021   0.04974   1.11113
    Y2       -0.50183   0.00244   0.00271  -0.00935  -0.00453  -0.50637
    Z2        0.17168  -0.00468  -0.02166  -0.09856  -0.14597   0.02571
    X3        2.01851   0.01182  -0.00668   0.02294   0.02291   2.04143
    Y3        2.08523   0.00355  -0.00193   0.00664   0.00706   2.09229
    Z3        0.24032   0.00696  -0.01115   0.03801  -0.00486   0.23546
    X4       -2.11191  -0.01112   0.00613  -0.04325  -0.03421  -2.14612
    Y4        2.15648   0.00754  -0.00250  -0.00253  -0.00397   2.15252
    Z4       -0.83683  -0.00148  -0.00247   0.01641  -0.00336  -0.84019
    X5       -2.20491   0.00327   0.00651  -0.02589  -0.01817  -2.22308
    Y5       -2.02756   0.00324  -0.00587  -0.03456  -0.03993  -2.06749
    Z5       -1.45544   0.00324   0.02207   0.07636   0.08585  -1.36959
    X6        3.08953  -0.00929  -0.03572  -0.08156  -0.10419   2.98534
    Y6        2.39489  -0.00275  -0.01106  -0.02579  -0.03249   2.36240
    Z6        2.03753  -0.00931   0.01262   0.08229   0.05965   2.09718
    X7        3.10685  -0.00357   0.01604   0.09678   0.11357   3.22042
    Y7        2.43626  -0.00118   0.00488   0.02856   0.03404   2.47030
    Z7       -1.54056   0.00844   0.00245   0.10505   0.07128  -1.46928
    X8       -3.79273   0.00454   0.00223  -0.04036  -0.03692  -3.82964
    Y8        3.16059  -0.00091   0.00810   0.01274   0.02133   3.18192
    Z8       -1.40315   0.00320   0.02221   0.07684   0.08647  -1.31668
    X9       -0.22284   0.00496   0.00431   0.02754   0.03786  -0.18498
    Y9        3.69436   0.00051   0.00012   0.03206   0.03428   3.72864
    Z9        0.21398  -0.00470  -0.02168  -0.09814  -0.14558   0.06840
         Item               Value     Threshold  Converged?
 Maximum Force            0.012447     0.000450     NO 
 RMS     Force            0.006054     0.000300     NO 
 Maximum Displacement     0.145968     0.001800     NO 
 RMS     Displacement     0.062001     0.001200     NO 
 Predicted change in Energy=-1.930041D-03
 GradGradGradGradGradGradGradGradGradGradGradGradGradGradGradGradGradGrad

                          Input orientation:                          
 ---------------------------------------------------------------------
 Center     Atomic      Atomic             Coordinates (Angstroms)
 Number     Number       Type             X           Y           Z
 ---------------------------------------------------------------------
      1          6           0       -0.741529   -0.148819   -0.457590
      2          8           0        0.587984   -0.267957    0.013607
      3          6           0        1.080277    1.107191    0.124600
      4          6           0       -1.135680    1.139062   -0.444610
      5          1           0       -1.176404   -1.094066   -0.724757
      6          1           0        1.579773    1.250130    1.109782
      7          1           0        1.704174    1.307224   -0.777508
      8          1           0       -2.026561    1.683801   -0.696759
      9          8           0       -0.097887    1.973111    0.036195
 ---------------------------------------------------------------------
                    Distance matrix (angstroms):
                    1          2          3          4          5
     1  C    0.000000
     2  O    1.415566   0.000000
     3  C    2.288117   1.464822   0.000000
     4  C    1.346908   2.271714   2.288117   0.000000
     5  H    1.074238   2.083436   3.264897   2.251001   0.000000
     6  H    3.130840   2.118923   1.113783   3.130840   4.056761
     7  H    2.864240   2.086370   1.114925   2.864240   3.750561
     8  H    2.251001   3.339136   3.264897   1.074238   2.905185
     9  O    2.271714   2.343783   1.464822   1.415566   3.339136
                    6          7          8          9
     6  H    0.000000
     7  H    1.892247   0.000000
     8  H    4.056761   3.750561   0.000000
     9  O    2.118923   2.086370   2.083436   0.000000
 Stoichiometry    C3H4O2
 Framework group  CS[SG(CH2),X(C2H2O2)]
 Deg. of freedom    12
 Full point group                 CS      NOp   2
 Largest Abelian subgroup         CS      NOp   2
 Largest concise Abelian subgroup CS      NOp   2
                         Standard orientation:                         
 ---------------------------------------------------------------------
 Center     Atomic      Atomic             Coordinates (Angstroms)
 Number     Number       Type             X           Y           Z
 ---------------------------------------------------------------------
      1          6           0        0.055183    1.006588    0.673454
      2          8           0        0.055183   -0.318322    1.171891
      3          6           0       -0.165492   -1.169014    0.000000
      4          6           0        0.055183    1.006588   -0.673454
      5          1           0        0.061645    1.746108    1.452592
      6          1           0        0.567315   -2.007768    0.000000
      7          1           0       -1.242779   -1.456261    0.000000
      8          1           0        0.061645    1.746108   -1.452592
      9          8           0        0.055183   -0.318322   -1.171891
 ---------------------------------------------------------------------
 Rotational constants (GHZ):           8.6114406           8.2630727           4.3692586
 Standard basis: VSTO-6G (5D, 7F)
 There are    14 symmetry adapted cartesian basis functions of A'  symmetry.
 There are    10 symmetry adapted cartesian basis functions of A"  symmetry.
 There are    14 symmetry adapted basis functions of A'  symmetry.
 There are    10 symmetry adapted basis functions of A"  symmetry.
    24 basis functions,   144 primitive gaussians,    24 cartesian basis functions
    14 alpha electrons       14 beta electrons
       nuclear repulsion energy       116.7795079573 Hartrees.
 Integral buffers will be    131072 words long.
 Regular integral format.
 Two-electron integral symmetry is turned off.
 Do NDO integrals.
 One-electron integrals computed using PRISM.
 NBasis=    24 RedAO= T EigKep=  1.00D+00  NBF=    14    10
 NBsUse=    24 1.00D-06 EigRej= -1.00D+00 NBFU=    14    10
 Initial guess from the checkpoint file:  "C:\Users\al6323\OneDrive - Imperial College London\Desktop\TSR20251113\13-dioxole_opt+freq_PM6.chk"
 B after Tr=     0.000000    0.000000    0.000000
         Rot=    0.999645    0.000000    0.000000   -0.026639 Ang=  -3.05 deg.
 Initial guess orbital symmetries:
       Occupied  (A') (A") (A') (A') (A") (A') (A') (A") (A') (A')
                 (A") (A') (A") (A')
       Virtual   (A") (A") (A') (A') (A") (A") (A') (A') (A") (A')
 Keep J ints in memory in canonical form, NReq=860952.
 Overlap will be assumed to be unity.
 Requested convergence on RMS density matrix=1.00D-08 within  32 cycles.
 Requested convergence on MAX density matrix=1.00D-06.
 Requested convergence on             energy=1.00D-06.
 No special actions if energy rises.
 Fock symm off for IB=2 I1=    1 I=   15 J=   11 Cut=1.00D-07 Err=5.24D-03
 Fock matrix is not symmetric: symmetry in diagonalization turned off.
 SCF Done:  E(RPM6) = -0.857858390789E-01 A.U. after   12 cycles
            NFock= 11  Conv=0.61D-08     -V/T= 0.9986
 QCSCF skips out because SCF is already converged.
 Calling FoFJK, ICntrl=      2127 FMM=F ISym2X=1 I1Cent= 0 IOpClX= 0 NMat=1 NMatS=1 NMatT=0.
 ***** Axes restored to original set *****
 -------------------------------------------------------------------
 Center     Atomic                   Forces (Hartrees/Bohr)
 Number     Number              X              Y              Z
 -------------------------------------------------------------------
      1        6           0.004088472    0.000467689    0.002454019
      2        8          -0.005861638    0.007831595   -0.003516990
      3        6           0.003685335    0.001129899   -0.000199933
      4        6           0.003663811    0.001855260    0.002468005
      5        1           0.001544624    0.002818117    0.001847052
      6        1          -0.007668713   -0.002265551   -0.008079235
      7        1          -0.001824617   -0.000628137    0.006917333
      8        1           0.002867569   -0.001504575    0.001803483
      9        8          -0.000494842   -0.009704296   -0.003693734
 -------------------------------------------------------------------
 Cartesian Forces:  Max     0.009704296 RMS     0.004239160

 GradGradGradGradGradGradGradGradGradGradGradGradGradGradGradGradGradGrad
 Berny optimization.
 Search for a local minimum.
 Step number   5 out of a maximum of  100
 All quantities printed in internal units (Hartrees-Bohrs-Radians)
 Update second derivatives using D2CorN and points    4    5
 DE= -2.24D-03 DEPred=-1.93D-03 R= 1.16D+00
 TightC=F SS=  1.41D+00  RLast= 3.22D-01 DXNew= 1.4270D+00 9.6651D-01
 Trust test= 1.16D+00 RLast= 3.22D-01 DXMaxT set to 9.67D-01
 ITU=  1  1  0  1  0
     Eigenvalues ---    0.01154   0.02216   0.06241   0.06613   0.08686
     Eigenvalues ---    0.09942   0.10009   0.14259   0.15463   0.18076
     Eigenvalues ---    0.18751   0.30815   0.33763   0.41845   0.65759
     Eigenvalues ---    0.93545   1.01163   1.07670   1.12854   1.31735
     Eigenvalues ---    1.56444
 RFO step:  Lambda=-1.97124815D-03 EMin= 1.15358162D-02
 ClnCor:  largest displacement from symmetrization is 6.96D-14 for atom     8.
 Quartic linear search produced a step of  0.31124.
 ClnCor:  largest displacement from symmetrization is 4.60D-15 for atom     5.
 B after Tr=     0.001097    0.000434   -0.009704
         Rot=    1.000000    0.000166   -0.000542   -0.000005 Ang=   0.06 deg.
 Variable       Old X    -DE/DX   Delta X   Delta X   Delta X     New X
                                 (Linear)    (Quad)   (Total)
    X1       -1.40129   0.00409  -0.00952   0.00820  -0.00116  -1.40244
    Y1       -0.28123   0.00047  -0.00492   0.01055   0.00577  -0.27546
    Z1       -0.86472   0.00245  -0.00108   0.00305  -0.00613  -0.87085
    X2        1.11113  -0.00586   0.01548  -0.01090   0.00563   1.11676
    Y2       -0.50637   0.00783  -0.00141   0.02443   0.02345  -0.48292
    Z2        0.02571  -0.00352  -0.04543  -0.02764  -0.08382  -0.05811
    X3        2.04143   0.00369   0.00713  -0.00550   0.00294   2.04437
    Y3        2.09229   0.00113   0.00220  -0.00152   0.00121   2.09349
    Z3        0.23546  -0.00020  -0.00151  -0.01630  -0.03042   0.20504
    X4       -2.14612   0.00366  -0.01065   0.01271   0.00223  -2.14389
    Y4        2.15252   0.00186  -0.00123  -0.00421  -0.00531   2.14720
    Z4       -0.84019   0.00247  -0.00105   0.00290  -0.00624  -0.84643
    X5       -2.22308   0.00154  -0.00566   0.00195  -0.00399  -2.22707
    Y5       -2.06749   0.00282  -0.01243   0.00217  -0.01028  -2.07776
    Z5       -1.36959   0.00185   0.02672   0.05300   0.07311  -1.29648
    X6        2.98534  -0.00767  -0.03243  -0.08206  -0.11112   2.87422
    Y6        2.36240  -0.00227  -0.01011  -0.02524  -0.03418   2.32823
    Z6        2.09718  -0.00808   0.01857   0.01191   0.01689   2.11408
    X7        3.22042  -0.00182   0.03535   0.06189   0.09678   3.31720
    Y7        2.47030  -0.00063   0.01059   0.01854   0.02914   2.49944
    Z7       -1.46928   0.00692   0.02219   0.03949   0.04755  -1.42173
    X8       -3.82964   0.00287  -0.01149   0.00312  -0.00864  -3.83829
    Y8        3.18192  -0.00150   0.00664  -0.00168   0.00494   3.18686
    Z8       -1.31668   0.00180   0.02691   0.05296   0.07327  -1.24341
    X9       -0.18498  -0.00049   0.01178   0.00448   0.01732  -0.16766
    Y9        3.72864  -0.00970   0.01067  -0.02583  -0.01473   3.71391
    Z9        0.06840  -0.00369  -0.04531  -0.02815  -0.08421  -0.01581
         Item               Value     Threshold  Converged?
 Maximum Force            0.009704     0.000450     NO 
 RMS     Force            0.004239     0.000300     NO 
 Maximum Displacement     0.111117     0.001800     NO 
 RMS     Displacement     0.044517     0.001200     NO 
 Predicted change in Energy=-9.405768D-04
 GradGradGradGradGradGradGradGradGradGradGradGradGradGradGradGradGradGrad

                          Input orientation:                          
 ---------------------------------------------------------------------
 Center     Atomic      Atomic             Coordinates (Angstroms)
 Number     Number       Type             X           Y           Z
 ---------------------------------------------------------------------
      1          6           0       -0.742142   -0.145767   -0.460834
      2          8           0        0.590965   -0.255548   -0.030751
      3          6           0        1.081833    1.107829    0.108503
      4          6           0       -1.134499    1.136251   -0.447913
      5          1           0       -1.178513   -1.099505   -0.686066
      6          1           0        1.520973    1.232044    1.118721
      7          1           0        1.755387    1.322644   -0.752345
      8          1           0       -2.031134    1.686414   -0.657987
      9          8           0       -0.088722    1.965316   -0.008367
 ---------------------------------------------------------------------
                    Distance matrix (angstroms):
                    1          2          3          4          5
     1  C    0.000000
     2  O    1.405062   0.000000
     3  C    2.285286   1.455727   0.000000
     4  C    1.340776   2.255738   2.285286   0.000000
     5  H    1.072737   2.067064   3.257734   2.248835   0.000000
     6  H    3.084647   2.097411   1.108519   3.084647   3.997575
     7  H    2.911848   2.089801   1.113948   2.911848   3.805124
     8  H    2.248835   3.322657   3.257734   1.072737   2.913606
     9  O    2.255738   2.322652   1.455727   1.405062   3.322657
                    6          7          8          9
     6  H    0.000000
     7  H    1.887868   0.000000
     8  H    3.997575   3.805124   0.000000
     9  O    2.097411   2.089801   2.067064   0.000000
 Stoichiometry    C3H4O2
 Framework group  CS[SG(CH2),X(C2H2O2)]
 Deg. of freedom    12
 Full point group                 CS      NOp   2
 Largest Abelian subgroup         CS      NOp   2
 Largest concise Abelian subgroup CS      NOp   2
                         Standard orientation:                         
 ---------------------------------------------------------------------
 Center     Atomic      Atomic             Coordinates (Angstroms)
 Number     Number       Type             X           Y           Z
 ---------------------------------------------------------------------
      1          6           0        0.040042    1.004747    0.670388
      2          8           0        0.040042   -0.311755    1.161326
      3          6           0       -0.125896   -1.173687    0.000000
      4          6           0        0.040042    1.004747   -0.670388
      5          1           0        0.064605    1.733934    1.456803
      6          1           0        0.676967   -1.938033    0.000000
      7          1           0       -1.171965   -1.556596    0.000000
      8          1           0        0.064605    1.733934   -1.456803
      9          8           0        0.040042   -0.311755   -1.161326
 ---------------------------------------------------------------------
 Rotational constants (GHZ):           8.6703597           8.3998393           4.4123087
 Standard basis: VSTO-6G (5D, 7F)
 There are    14 symmetry adapted cartesian basis functions of A'  symmetry.
 There are    10 symmetry adapted cartesian basis functions of A"  symmetry.
 There are    14 symmetry adapted basis functions of A'  symmetry.
 There are    10 symmetry adapted basis functions of A"  symmetry.
    24 basis functions,   144 primitive gaussians,    24 cartesian basis functions
    14 alpha electrons       14 beta electrons
       nuclear repulsion energy       117.1085004081 Hartrees.
 Integral buffers will be    131072 words long.
 Regular integral format.
 Two-electron integral symmetry is turned off.
 Do NDO integrals.
 One-electron integrals computed using PRISM.
 NBasis=    24 RedAO= T EigKep=  1.00D+00  NBF=    14    10
 NBsUse=    24 1.00D-06 EigRej= -1.00D+00 NBFU=    14    10
 Initial guess from the checkpoint file:  "C:\Users\al6323\OneDrive - Imperial College London\Desktop\TSR20251113\13-dioxole_opt+freq_PM6.chk"
 B after Tr=     0.000000    0.000000    0.000000
         Rot=    0.999928    0.000000    0.000000   -0.011990 Ang=  -1.37 deg.
 Initial guess orbital symmetries:
       Occupied  (A') (A") (A') (A') (A") (A') (A') (A") (A') (A')
                 (A") (A') (A") (A')
       Virtual   (A") (A") (A') (A') (A") (A") (A') (A') (A") (A')
 Keep J ints in memory in canonical form, NReq=860952.
 Overlap will be assumed to be unity.
 Requested convergence on RMS density matrix=1.00D-08 within  32 cycles.
 Requested convergence on MAX density matrix=1.00D-06.
 Requested convergence on             energy=1.00D-06.
 No special actions if energy rises.
 Fock symm off for IB=2 I1=    1 I=   15 J=    9 Cut=1.00D-07 Err=3.64D-03
 Fock matrix is not symmetric: symmetry in diagonalization turned off.
 SCF Done:  E(RPM6) = -0.870290391138E-01 A.U. after   12 cycles
            NFock= 11  Conv=0.28D-08     -V/T= 0.9986
 QCSCF skips out because SCF is already converged.
 Calling FoFJK, ICntrl=      2127 FMM=F ISym2X=1 I1Cent= 0 IOpClX= 0 NMat=1 NMatS=1 NMatT=0.
 ***** Axes restored to original set *****
 -------------------------------------------------------------------
 Center     Atomic                   Forces (Hartrees/Bohr)
 Number     Number              X              Y              Z
 -------------------------------------------------------------------
      1        6           0.000301273   -0.007519124    0.001127073
      2        8           0.001323540   -0.001180861   -0.002109340
      3        6           0.006654715    0.002027925    0.000865777
      4        6          -0.003951818    0.006377757    0.001267139
      5        1           0.000559752    0.002072541    0.000255666
      6        1          -0.003810954   -0.001110527   -0.005536453
      7        1          -0.003125794   -0.001017004    0.005989281
      8        1           0.001625160   -0.001408657    0.000220579
      9        8           0.000424127    0.001757950   -0.002079720
 -------------------------------------------------------------------
 Cartesian Forces:  Max     0.007519124 RMS     0.003235042

 GradGradGradGradGradGradGradGradGradGradGradGradGradGradGradGradGradGrad
 Berny optimization.
 Search for a local minimum.
 Step number   6 out of a maximum of  100
 All quantities printed in internal units (Hartrees-Bohrs-Radians)
 Update second derivatives using D2CorN and points    4    5    6
 DE= -1.24D-03 DEPred=-9.41D-04 R= 1.32D+00
 TightC=F SS=  1.41D+00  RLast= 2.31D-01 DXNew= 1.6255D+00 6.9395D-01
 Trust test= 1.32D+00 RLast= 2.31D-01 DXMaxT set to 9.67D-01
 ITU=  1  1  1  0  1  0
     Eigenvalues ---    0.00735   0.02219   0.06248   0.06603   0.08657
     Eigenvalues ---    0.09947   0.10007   0.14561   0.15342   0.17776
     Eigenvalues ---    0.18762   0.30819   0.33705   0.41352   0.65742
     Eigenvalues ---    0.93404   1.01241   1.07486   1.12699   1.31738
     Eigenvalues ---    1.56395
 RFO step:  Lambda=-1.53661528D-03 EMin= 7.35406852D-03
 ClnCor:  largest displacement from symmetrization is 8.56D-14 for atom     8.
 Quartic linear search produced a step of  0.38548.
 ClnCor:  largest displacement from symmetrization is 5.84D-15 for atom     7.
 B after Tr=     0.006954    0.002333   -0.020365
         Rot=    0.999998    0.000589   -0.001923   -0.000019 Ang=   0.23 deg.
 Variable       Old X    -DE/DX   Delta X   Delta X   Delta X     New X
                                 (Linear)    (Quad)   (Total)
    X1       -1.40244   0.00030  -0.00045  -0.01943  -0.01615  -1.41860
    Y1       -0.27546  -0.00752   0.00222  -0.01492  -0.01141  -0.28687
    Z1       -0.87085   0.00113  -0.00236   0.02789   0.01098  -0.85987
    X2        1.11676   0.00132   0.00217   0.04070   0.04912   1.16588
    Y2       -0.48292  -0.00118   0.00904  -0.02144  -0.01025  -0.49316
    Z2       -0.05811  -0.00211  -0.03231  -0.09634  -0.15289  -0.21100
    X3        2.04437   0.00665   0.00113   0.00364   0.01246   2.05683
    Y3        2.09349   0.00203   0.00047   0.00086   0.00398   2.09748
    Z3        0.20504   0.00087  -0.01173   0.02553  -0.01691   0.18813
    X4       -2.14389  -0.00395   0.00086  -0.02430  -0.01971  -2.16360
    Y4        2.14720   0.00638  -0.00205   0.00097   0.00021   2.14742
    Z4       -0.84643   0.00127  -0.00241   0.02805   0.01110  -0.83534
    X5       -2.22707   0.00056  -0.00154  -0.02678  -0.02588  -2.25295
    Y5       -2.07776   0.00207  -0.00396  -0.00502  -0.00814  -2.08591
    Z5       -1.29648   0.00026   0.02818   0.06805   0.08701  -1.20947
    X6        2.87422  -0.00381  -0.04283  -0.09994  -0.12754   2.74668
    Y6        2.32823  -0.00111  -0.01317  -0.03121  -0.03939   2.28884
    Z6        2.11408  -0.00554   0.00651   0.06210   0.03504   2.14911
    X7        3.31720  -0.00313   0.03731   0.07996   0.11912   3.43632
    Y7        2.49944  -0.00102   0.01123   0.02337   0.03554   2.53497
    Z7       -1.42173   0.00599   0.01833   0.10929   0.09108  -1.33065
    X8       -3.83829   0.00163  -0.00333  -0.02462  -0.02551  -3.86380
    Y8        3.18686  -0.00141   0.00190  -0.01208  -0.00934   3.17752
    Z8       -1.24341   0.00022   0.02824   0.06798   0.08699  -1.15642
    X9       -0.16766   0.00042   0.00668   0.02118   0.03411  -0.13355
    Y9        3.71391   0.00176  -0.00568   0.04232   0.03879   3.75270
    Z9       -0.01581  -0.00208  -0.03246  -0.09569  -0.15239  -0.16821
         Item               Value     Threshold  Converged?
 Maximum Force            0.007519     0.000450     NO 
 RMS     Force            0.003235     0.000300     NO 
 Maximum Displacement     0.152889     0.001800     NO 
 RMS     Displacement     0.064599     0.001200     NO 
 Predicted change in Energy=-7.872982D-04
 GradGradGradGradGradGradGradGradGradGradGradGradGradGradGradGradGradGrad

                          Input orientation:                          
 ---------------------------------------------------------------------
 Center     Atomic      Atomic             Coordinates (Angstroms)
 Number     Number       Type             X           Y           Z
 ---------------------------------------------------------------------
      1          6           0       -0.750691   -0.151806   -0.455024
      2          8           0        0.616956   -0.260970   -0.111656
      3          6           0        1.088428    1.109938    0.099554
      4          6           0       -1.144930    1.136363   -0.442041
      5          1           0       -1.192209   -1.103814   -0.640025
      6          1           0        1.453481    1.211202    1.137262
      7          1           0        1.818422    1.341450   -0.704148
      8          1           0       -2.044636    1.681472   -0.611952
      9          8           0       -0.070673    1.985844   -0.089010
 ---------------------------------------------------------------------
                    Distance matrix (angstroms):
                    1          2          3          4          5
     1  C    0.000000
     2  O    1.414311   0.000000
     3  C    2.298242   1.465020   0.000000
     4  C    1.347210   2.272870   2.298242   0.000000
     5  H    1.065590   2.064616   3.263278   2.249406   0.000000
     6  H    3.041634   2.104011   1.104697   3.041634   3.939254
     7  H    2.981982   2.088616   1.110147   2.981982   3.879088
     8  H    2.249406   3.332783   3.263278   1.065590   2.912943
     9  O    2.272870   2.349791   1.465020   1.414311   3.332783
                    6          7          8          9
     6  H    0.000000
     7  H    1.881738   0.000000
     8  H    3.939254   3.879088   0.000000
     9  O    2.104011   2.088616   2.064616   0.000000
 Stoichiometry    C3H4O2
 Framework group  CS[SG(CH2),X(C2H2O2)]
 Deg. of freedom    12
 Full point group                 CS      NOp   2
 Largest Abelian subgroup         CS      NOp   2
 Largest concise Abelian subgroup CS      NOp   2
                         Standard orientation:                         
 ---------------------------------------------------------------------
 Center     Atomic      Atomic             Coordinates (Angstroms)
 Number     Number       Type             X           Y           Z
 ---------------------------------------------------------------------
      1          6           0        0.007919    1.012018    0.673605
      2          8           0        0.007919   -0.310473    1.174896
      3          6           0       -0.023578   -1.185066    0.000000
      4          6           0        0.007919    1.012018   -0.673605
      5          1           0        0.021238    1.734808    1.456472
      6          1           0        0.877845   -1.823652    0.000000
      7          1           0       -1.000590   -1.712203    0.000000
      8          1           0        0.021238    1.734808   -1.456472
      9          8           0        0.007919   -0.310473   -1.174896
 ---------------------------------------------------------------------
 Rotational constants (GHZ):           8.6116286           8.2695715           4.3484643
 Standard basis: VSTO-6G (5D, 7F)
 There are    14 symmetry adapted cartesian basis functions of A'  symmetry.
 There are    10 symmetry adapted cartesian basis functions of A"  symmetry.
 There are    14 symmetry adapted basis functions of A'  symmetry.
 There are    10 symmetry adapted basis functions of A"  symmetry.
    24 basis functions,   144 primitive gaussians,    24 cartesian basis functions
    14 alpha electrons       14 beta electrons
       nuclear repulsion energy       116.8000178094 Hartrees.
 Integral buffers will be    131072 words long.
 Regular integral format.
 Two-electron integral symmetry is turned off.
 Do NDO integrals.
 One-electron integrals computed using PRISM.
 NBasis=    24 RedAO= T EigKep=  1.00D+00  NBF=    14    10
 NBsUse=    24 1.00D-06 EigRej= -1.00D+00 NBFU=    14    10
 Initial guess from the checkpoint file:  "C:\Users\al6323\OneDrive - Imperial College London\Desktop\TSR20251113\13-dioxole_opt+freq_PM6.chk"
 B after Tr=     0.000000    0.000000    0.000000
         Rot=    0.999607    0.000000    0.000000   -0.028034 Ang=  -3.21 deg.
 Initial guess orbital symmetries:
       Occupied  (A') (A") (A') (A') (A") (A') (A') (A') (A") (A')
                 (A") (A') (A") (A')
       Virtual   (A") (A") (A') (A') (A") (A") (A') (A') (A") (A')
 Keep J ints in memory in canonical form, NReq=860952.
 Overlap will be assumed to be unity.
 Requested convergence on RMS density matrix=1.00D-08 within  32 cycles.
 Requested convergence on MAX density matrix=1.00D-06.
 Requested convergence on             energy=1.00D-06.
 No special actions if energy rises.
 Fock symm off for IB=2 I1=    1 I=   15 J=    9 Cut=1.00D-07 Err=5.38D-03
 Fock matrix is not symmetric: symmetry in diagonalization turned off.
 SCF Done:  E(RPM6) = -0.875171805306E-01 A.U. after   12 cycles
            NFock= 11  Conv=0.53D-08     -V/T= 0.9986
 QCSCF skips out because SCF is already converged.
 Calling FoFJK, ICntrl=      2127 FMM=F ISym2X=1 I1Cent= 0 IOpClX= 0 NMat=1 NMatS=1 NMatT=0.
 ***** Axes restored to original set *****
 -------------------------------------------------------------------
 Center     Atomic                   Forces (Hartrees/Bohr)
 Number     Number              X              Y              Z
 -------------------------------------------------------------------
      1        6           0.007043028    0.004419733    0.003107621
      2        8          -0.006911323    0.008195935   -0.000499951
      3        6           0.001228916    0.000416547   -0.004012480
      4        6           0.008327669    0.000222196    0.003065314
      5        1          -0.001081169   -0.000571289   -0.000700704
      6        1          -0.003161159   -0.000924396   -0.004272816
      7        1          -0.003082467   -0.000990740    0.004699051
      8        1          -0.001219655   -0.000118791   -0.000696144
      9        8          -0.001143839   -0.010649195   -0.000689891
 -------------------------------------------------------------------
 Cartesian Forces:  Max     0.010649195 RMS     0.004178408

 GradGradGradGradGradGradGradGradGradGradGradGradGradGradGradGradGradGrad
 Berny optimization.
 Search for a local minimum.
 Step number   7 out of a maximum of  100
 All quantities printed in internal units (Hartrees-Bohrs-Radians)
 Update second derivatives using D2CorN and points    5    6    7
 DE= -4.88D-04 DEPred=-7.87D-04 R= 6.20D-01
 TightC=F SS=  1.41D+00  RLast= 3.36D-01 DXNew= 1.6255D+00 1.0070D+00
 Trust test= 6.20D-01 RLast= 3.36D-01 DXMaxT set to 1.01D+00
 ITU=  1  1  1  1  0  1  0
     Eigenvalues ---    0.00899   0.02222   0.06245   0.06586   0.08617
     Eigenvalues ---    0.09881   0.10018   0.14728   0.15106   0.17662
     Eigenvalues ---    0.18687   0.30824   0.33548   0.41094   0.65680
     Eigenvalues ---    0.93311   1.01241   1.06859   1.12392   1.31728
     Eigenvalues ---    1.56375
 RFO step:  Lambda=-6.45072013D-04 EMin= 8.98668725D-03
 ClnCor:  largest displacement from symmetrization is 9.46D-14 for atom     8.
 Quartic linear search produced a step of -0.26750.
 ClnCor:  largest displacement from symmetrization is 3.26D-15 for atom     7.
 B after Tr=     0.002799    0.000944   -0.008708
         Rot=    1.000000    0.000150   -0.000491   -0.000005 Ang=   0.06 deg.
 Variable       Old X    -DE/DX   Delta X   Delta X   Delta X     New X
                                 (Linear)    (Quad)   (Total)
    X1       -1.41860   0.00704   0.00432   0.00693   0.01320  -1.40540
    Y1       -0.28687   0.00442   0.00305   0.00401   0.00774  -0.27914
    Z1       -0.85987   0.00311  -0.00294   0.00263  -0.00755  -0.86742
    X2        1.16588  -0.00691  -0.01314  -0.00217  -0.01270   1.15318
    Y2       -0.49316   0.00820   0.00274   0.01704   0.02067  -0.47249
    Z2       -0.21100  -0.00050   0.04090  -0.02772   0.00349  -0.20751
    X3        2.05683   0.00123  -0.00333  -0.00100  -0.00137   2.05546
    Y3        2.09748   0.00042  -0.00107  -0.00024  -0.00029   2.09719
    Z3        0.18813  -0.00401   0.00452  -0.00629  -0.01312   0.17501
    X4       -2.16360   0.00833   0.00527   0.00800   0.01523  -2.14837
    Y4        2.14742   0.00022  -0.00006   0.00050   0.00112   2.14853
    Z4       -0.83534   0.00307  -0.00297   0.00259  -0.00762  -0.84295
    X5       -2.25295  -0.00108   0.00692  -0.00646   0.00212  -2.25083
    Y5       -2.08591  -0.00057   0.00218  -0.00357  -0.00083  -2.08674
    Z5       -1.20947  -0.00070  -0.02327   0.04213   0.01299  -1.19648
    X6        2.74668  -0.00316   0.03412  -0.06244  -0.02343   2.72325
    Y6        2.28884  -0.00092   0.01054  -0.01921  -0.00706   2.28178
    Z6        2.14911  -0.00427  -0.00937   0.00995  -0.01149   2.13762
    X7        3.43632  -0.00308  -0.03186   0.03491   0.00453   3.44085
    Y7        2.53497  -0.00099  -0.00951   0.01024   0.00131   2.53629
    Z7       -1.33065   0.00470  -0.02436   0.04446   0.00725  -1.32340
    X8       -3.86380  -0.00122   0.00683  -0.00711   0.00136  -3.86244
    Y8        3.17752  -0.00012   0.00250  -0.00143   0.00163   3.17915
    Z8       -1.15642  -0.00070  -0.02327   0.04216   0.01302  -1.14340
    X9       -0.13355  -0.00114  -0.00912   0.00758   0.00106  -0.13249
    Y9        3.75270  -0.01065  -0.01038  -0.01482  -0.02430   3.72840
    Z9       -0.16821  -0.00069   0.04077  -0.02804   0.00303  -0.16517
         Item               Value     Threshold  Converged?
 Maximum Force            0.010649     0.000450     NO 
 RMS     Force            0.004178     0.000300     NO 
 Maximum Displacement     0.024301     0.001800     NO 
[...]
                             1880.40  2444.18  3826.42  3880.54  3986.81
                             4006.63
 
 Zero-point correction=                           0.062686 (Hartree/Particle)
 Thermal correction to Energy=                    0.066963
 Thermal correction to Enthalpy=                  0.067907
 Thermal correction to Gibbs Free Energy=         0.035753
 Sum of electronic and zero-point Energies=             -0.025345
 Sum of electronic and thermal Energies=                -0.021068
 Sum of electronic and thermal Enthalpies=              -0.020124
 Sum of electronic and thermal Free Energies=           -0.052279
 
                     E (Thermal)             CV                S
                      KCal/Mol        Cal/Mol-Kelvin    Cal/Mol-Kelvin
 Total                   42.020             14.833             67.675
 Electronic               0.000              0.000              0.000
 Translational            0.889              2.981             38.740
 Rotational               0.889              2.981             24.425
 Vibrational             40.243              8.871              4.510
 Vibration     1          0.645              1.818              1.999
 Vibration     2          0.770              1.460              0.946
                       Q            Log10(Q)             Ln(Q)
 Total Bot       0.358766D-16        -16.445189        -37.866448
 Total V=0       0.244662D+13         12.388567         28.525729
 Vib (Bot)       0.307395D-28        -28.512304        -65.652005
 Vib (Bot)    1  0.920691D+00         -0.035886         -0.082631
 Vib (Bot)    2  0.438883D+00         -0.357651         -0.823522
 Vib (V=0)       0.209630D+01          0.321452          0.740172
 Vib (V=0)    1  0.154770D+01          0.189686          0.436769
 Vib (V=0)    2  0.116530D+01          0.066436          0.152975
 Electronic      0.100000D+01          0.000000          0.000000
 Translational   0.240239D+08          7.380644         16.994560
 Rotational      0.485815D+05          4.686471         10.790997
 ***** Axes restored to original set *****
 -------------------------------------------------------------------
 Center     Atomic                   Forces (Hartrees/Bohr)
 Number     Number              X              Y              Z
 -------------------------------------------------------------------
      1        6           0.000041726    0.000017150    0.000019862
      2        8          -0.000032824    0.000007225   -0.000032240
      3        6          -0.000027144   -0.000008992    0.000067934
      4        6           0.000044289    0.000008775    0.000019778
      5        1           0.000000668   -0.000031512   -0.000007796
      6        1           0.000009603    0.000002772    0.000016598
      7        1           0.000004147    0.000001717   -0.000044375
      8        1          -0.000017125    0.000026626   -0.000007210
      9        8          -0.000023341   -0.000023761   -0.000032552
 -------------------------------------------------------------------
 Cartesian Forces:  Max     0.000067934 RMS     0.000026599

 GradGradGradGradGradGradGradGradGradGradGradGradGradGradGradGradGradGrad
 Berny optimization.
 Search for a local minimum.
 Step number   1 out of a maximum of    2
 All quantities printed in internal units (Hartrees-Bohrs-Radians)
 Second derivative matrix not updated -- analytic derivatives used.
 ITU=  0
     Eigenvalues ---    0.00653   0.01720   0.04661   0.05681   0.06239
     Eigenvalues ---    0.06402   0.06688   0.12509   0.12917   0.15527
     Eigenvalues ---    0.17417   0.18541   0.30085   0.41573   0.51835
     Eigenvalues ---    0.57597   0.65229   0.67344   0.68196   0.77599
     Eigenvalues ---    1.45509
 Angle between quadratic step and forces=  55.31 degrees.
 ClnCor:  largest displacement from symmetrization is 2.14D-14 for atom     4.
 Linear search not attempted -- first point.
 ClnCor:  largest displacement from symmetrization is 4.27D-15 for atom     7.
 B after Tr=    -0.000011   -0.000003    0.000017
         Rot=    1.000000    0.000000    0.000001    0.000000 Ang=   0.00 deg.
 Variable       Old X    -DE/DX   Delta X   Delta X   Delta X     New X
                                 (Linear)    (Quad)   (Total)
    X1       -1.40802   0.00004   0.00000   0.00003   0.00002  -1.40800
    Y1       -0.28215   0.00002   0.00000   0.00000  -0.00001  -0.28216
    Z1       -0.84037   0.00002   0.00000   0.00007   0.00008  -0.84029
    X2        1.17058  -0.00003   0.00000  -0.00004  -0.00005   1.17053
    Y2       -0.47495   0.00001   0.00000   0.00003   0.00002  -0.47493
    Z2       -0.25510  -0.00003   0.00000  -0.00007  -0.00005  -0.25515
    X3        2.06290  -0.00003   0.00000  -0.00005  -0.00006   2.06284
    Y3        2.09960  -0.00001   0.00000  -0.00002  -0.00002   2.09958
    Z3        0.16207   0.00007   0.00000   0.00022   0.00024   0.16232
    X4       -2.15209   0.00004   0.00000   0.00002   0.00001  -2.15207
    Y4        2.14906   0.00001   0.00000   0.00002   0.00001   2.14908
    Z4       -0.81587   0.00002   0.00000   0.00007   0.00008  -0.81578
    X5       -2.26550   0.00000   0.00000   0.00026   0.00025  -2.26525
    Y5       -2.07682  -0.00003   0.00000  -0.00021  -0.00021  -2.07703
    Z5       -1.18602  -0.00001   0.00000  -0.00011  -0.00011  -1.18613
    X6        2.67783   0.00001   0.00000   0.00012   0.00011   2.67793
    Y6        2.26790   0.00000   0.00000   0.00004   0.00003   2.26793
    Z6        2.13561   0.00002   0.00000   0.00017   0.00020   2.13582
    X7        3.47619   0.00000   0.00000  -0.00033  -0.00034   3.47585
    Y7        2.54675   0.00000   0.00000  -0.00010  -0.00010   2.54665
    Z7       -1.28821  -0.00004   0.00000  -0.00034  -0.00031  -1.28852
    X8       -3.86898  -0.00002   0.00000   0.00010   0.00009  -3.86889
    Y8        3.16254   0.00003   0.00000   0.00032   0.00031   3.16285
    Z8       -1.13321  -0.00001   0.00000  -0.00011  -0.00010  -1.13331
    X9       -0.11971  -0.00002   0.00000  -0.00002  -0.00003  -0.11974
    Y9        3.74106  -0.00002   0.00000  -0.00004  -0.00004   3.74101
    Z9       -0.21261  -0.00003   0.00000  -0.00007  -0.00005  -0.21265
         Item               Value     Threshold  Converged?
 Maximum Force            0.000068     0.000450     YES
 RMS     Force            0.000027     0.000300     YES
 Maximum Displacement     0.000342     0.001800     YES
 RMS     Displacement     0.000149     0.001200     YES
 Predicted change in Energy=-3.047154D-08
 Optimization completed.
    -- Stationary point found.
 GradGradGradGradGradGradGradGradGradGradGradGradGradGradGradGradGradGrad


 ----------------------------------------------------------------------

 Electric dipole moment (input orientation):
 (Debye = 10**-18 statcoulomb cm , SI units = C m)
                  (au)            (Debye)         (10**-30 SI)
   Tot        0.156035D+00      0.396602D+00      0.132292D+01
   x         -0.144965D+00     -0.368465D+00     -0.122907D+01
   y         -0.439894D-01     -0.111810D+00     -0.372957D+00
   z         -0.373767D-01     -0.950021D-01     -0.316893D+00

 Dipole polarizability, Alpha (input orientation).
 (esu units = cm**3 , SI units = C**2 m**2 J**-1)
 Alpha(0;0):
               (au)            (10**-24 esu)      (10**-40 SI)
   iso        0.303879D+02      0.450302D+01      0.501029D+01
   aniso      0.314356D+02      0.465827D+01      0.518303D+01
   xx         0.329355D+02      0.488053D+01      0.543033D+01
   yx        -0.441430D+01     -0.654131D+00     -0.727819D+00
   yy         0.458347D+02      0.679200D+01      0.755712D+01
   zx         0.471679D+01      0.698956D+00      0.777694D+00
   zy         0.179441D+01      0.265904D+00      0.295858D+00
   zz         0.123936D+02      0.183654D+01      0.204342D+01

 First dipole hyperpolarizability, Beta (input orientation).
 ||, _|_  parallel and perpendicular components, (z) with respect to z axis,
 vector components x,y,z.  Values do not include the 1/n! factor of 1/2.
 (esu units = statvolt**-1 cm**4 , SI units = C**3 m**3 J**-2)
 Beta(0;0,0):
               (au)            (10**-30 esu)      (10**-50 SI)
   || (z)    -0.183319D+02     -0.158373D+00     -0.587786D-01
   _|_(z)    -0.611062D+01     -0.527910D-01     -0.195929D-01
   x         -0.355435D+03     -0.307068D+01     -0.113965D+01
   y         -0.107856D+03     -0.931791D+00     -0.345825D+00
   z         -0.916593D+02     -0.791865D+00     -0.293893D+00
   ||         0.765163D+02      0.661041D+00      0.245339D+00
   xxx       -0.485175D+02     -0.419154D+00     -0.155565D+00
   xxy        0.536623D+02      0.463601D+00      0.172061D+00
   yxy       -0.848967D+02     -0.733441D+00     -0.272209D+00
   yyy       -0.934643D+02     -0.807458D+00     -0.299680D+00
   xxz       -0.161156D+02     -0.139226D+00     -0.516724D-01
   yxz        0.260550D+01      0.225095D-01      0.835418D-02
   yyz       -0.283812D+02     -0.245192D+00     -0.910004D-01
   zxz        0.149358D+02      0.129033D+00      0.478895D-01
   zyz        0.384998D+01      0.332609D-01      0.123444D-01
   zzz        0.139437D+02      0.120463D+00      0.447085D-01

 ----------------------------------------------------------------------

 Dipole orientation:
     6          0.41281039         -0.27037634          1.58897442
     8          0.69281890          0.61992472         -0.89252801
     6          0.03219407         -1.48338547         -2.54729005
     6         -0.34962041         -2.69601800          1.58897442
     1          0.85277506          1.13058560          2.97436391
     1         -1.65016927         -0.95458287         -3.63877734
     1          1.71426410         -2.01209588         -3.63896661
     1         -0.79029036         -4.09675826          2.97436391
     8         -0.62932323         -3.58641514         -0.89252801

 Electric dipole moment (dipole orientation):
 (Debye = 10**-18 statcoulomb cm , SI units = C m)
                  (au)            (Debye)         (10**-30 SI)
   Tot        0.156035D+00      0.396602D+00      0.132292D+01
   x          0.000000D+00      0.000000D+00      0.000000D+00
   y          0.000000D+00      0.000000D+00      0.000000D+00
   z          0.156035D+00      0.396602D+00      0.132292D+01

 Dipole polarizability, Alpha (dipole orientation).
 (esu units = cm**3 , SI units = C**2 m**2 J**-1)
 Alpha(0;0):
               (au)            (10**-24 esu)      (10**-40 SI)
   iso        0.303879D+02      0.450302D+01      0.501029D+01
   aniso      0.314356D+02      0.465827D+01      0.518303D+01
   xx         0.143905D+02      0.213245D+01      0.237267D+01
   yx         0.103139D+02      0.152836D+01      0.170053D+01
   yy         0.439619D+02      0.651448D+01      0.724833D+01
   zx        -0.280695D-02     -0.415947D-03     -0.462803D-03
   zy         0.882284D-03      0.130741D-03      0.145469D-03
   zz         0.328114D+02      0.486215D+01      0.540987D+01

 First dipole hyperpolarizability, Beta (dipole orientation).
 ||, _|_  parallel and perpendicular components, (z) with respect to z axis,
 vector components x,y,z.  Values do not include the 1/n! factor of 1/2.
 (esu units = statvolt**-1 cm**4 , SI units = C**3 m**3 J**-2)
 Beta(0;0,0):
               (au)            (10**-30 esu)      (10**-50 SI)
   || (z)     0.765163D+02      0.661041D+00      0.245339D+00
   _|_(z)     0.255054D+02      0.220347D+00      0.817796D-01
   x          0.153600D-01      0.132699D-03      0.492498D-04
   y         -0.482798D-02     -0.417100D-04     -0.154803D-04
   z          0.382581D+03      0.330521D+01      0.122669D+01
   ||         0.765163D+02      0.661041D+00      0.245339D+00
   xxx       -0.499844D-02     -0.431826D-04     -0.160268D-04
   xxy        0.611791D-02      0.528540D-04      0.196162D-04
   yxy        0.459515D-02      0.396985D-04      0.147337D-04
   yyy       -0.599115D-02     -0.517589D-04     -0.192098D-04
   xxz       -0.845713D+01     -0.730630D-01     -0.271166D-01
   yxz        0.404373D+02      0.349347D+00      0.129657D+00
   yyz        0.107482D+03      0.928562D+00      0.344627D+00
   zxz        0.552329D-02      0.477169D-04      0.177097D-04
   zyz       -0.173609D-02     -0.149984D-04     -0.556652D-05
   zzz        0.285021D+02      0.246236D+00      0.913881D-01

 ----------------------------------------------------------------------
 Unable to Open any file for archive entry.
 1|1|UNPC-SKCH-134-020|Freq|RPM6|ZDO|C3H4O2|AL6323|13-Nov-2025|0||#N Ge
 om=AllCheck Guess=TCheck SCRF=Check GenChk RPM6/ZDO Freq||Title Card R
 equired||0,1|C,-0.7450926585,-0.1493077541,-0.4447050944|O,0.619444251
 7,-0.2513323036,-0.1349937879|C,1.0916413882,1.1110602018,0.0857654115
 |C,-1.1388346446,1.1372357486,-0.4317380263|H,-1.1988490492,-1.0990046
 904,-0.6276147652|H,1.4170445251,1.2001226211,1.1301187191|H,1.8395198
 339,1.3476809147,-0.6816938265|H,-2.0473770022,1.6735422145,-0.5996702
 732|O,-0.0633493516,1.9796811649,-0.1125074098||Version=EM64W-G16RevC.
 01|State=1-A'|HF=-0.0880316|RMSD=4.088e-010|RMSF=2.660e-005|ZeroPoint=
 0.0626865|Thermal=0.0669632|ETot=-0.0210684|HTot=-0.0201242|GTot=-0.05
 22786|Dipole=-0.1449652,-0.0439894,-0.0373767|DipoleDeriv=0.6546861,-0
 .5649016,0.1361181,-0.3115937,-0.308293,-0.0873688,0.1567584,-0.146512
 2,-0.1020592,-0.9776229,0.3972501,-0.1216201,-0.2363391,-0.4502332,-0.
 0659617,-0.1731773,0.081792,-0.350514,0.5065729,0.0395531,0.0819263,0.
 0395541,0.3864699,0.026934,0.0818298,0.0269045,0.1900191,-0.0527827,0.
 7368857,0.0772291,0.4835781,0.3931695,0.1549915,0.0565642,0.2141274,-0
 .0960528,0.1222854,0.1126881,-0.0117128,0.1049956,0.3758955,0.0378048,
 -0.0123427,0.0395998,0.2122322,0.0561014,0.0039997,0.042532,0.0036519,
 0.0426325,0.0115884,0.0770471,0.0221517,0.1833431,0.1271053,0.0268299,
 -0.0660083,0.0271774,0.0501405,-0.0208392,-0.1004849,-0.0313906,0.1048
 738,0.3028002,-0.1625301,0.0079448,-0.1548375,0.1969125,-0.0372937,0.0
 085691,-0.0390903,0.2107004,-0.7391399,-0.589774,-0.1464084,0.0438143,
 -0.6866915,-0.0198553,-0.094763,-0.167582,-0.3525387|Polar=32.9354736,
 -4.4142956,45.8346873,4.7167912,1.7944087,12.3935606|HyperPolar=-48.51
 75491,53.6623135,-84.8966676,-93.4642531,-16.1155842,2.6055015,-28.381
 2073,14.9357667,3.8499831,13.9437014|PG=CS [SG(C1H2),X(C2H2O2)]|NImag=
 0||0.44953753,-0.03523695,0.88147574,0.07998887,0.05586438,0.11710934,
 -0.24175957,0.02885735,-0.04792309,0.41532921,0.03632479,-0.06767789,0
 .00508938,-0.01480057,0.38022703,-0.04731336,0.00334550,-0.03680413,0.
 08427010,0.02352435,0.07010202,-0.02816419,-0.04560589,-0.01023317,-0.
 08149251,-0.03939198,-0.01234013,0.48564369,-0.05859657,-0.00716096,-0
 .01423183,-0.02436690,-0.18464381,-0.01725172,0.04265870,0.35860663,-0
 .01129742,-0.01119875,-0.00369329,-0.01110927,-0.02074110,-0.04656241,
 0.01981741,0.00531304,0.42021554,-0.08113082,0.15562848,0.00395752,-0.
 07970894,0.03538773,-0.01772790,-0.07009302,0.01653334,-0.01495310,0.5
 5321529,0.13396403,-0.50999399,-0.00673252,0.04841510,-0.02794964,0.00
 829956,0.00354257,0.03441182,0.00363937,-0.18888879,0.77867705,0.00219
 445,-0.00168520,-0.04336197,-0.01666938,0.00525980,0.00526727,-0.01600
 811,0.00667528,-0.00333723,0.09162802,0.01173741,0.11623027,-0.0624308
 8,-0.07018377,-0.01282813,-0.02791518,-0.02886790,-0.00944500,-0.00576
 851,0.00308780,-0.00167157,0.00598907,0.00400260,0.00175815,0.08796696
 ,-0.07285504,-0.18737713,-0.02961468,-0.01044031,0.00050646,-0.0025991
 9,0.00079996,-0.00046167,-0.00005233,-0.00949370,-0.03445897,-0.005002
 80,0.08879166,0.22374201,-0.01304571,-0.02899088,-0.03725492,-0.007946
 48,-0.00689271,0.00013499,-0.00185697,0.00048023,0.00208657,0.00066074
 ,-0.00185852,-0.00015681,0.02317823,0.03729450,0.02790025,-0.00096062,
 -0.00041158,0.00003486,-0.00254850,-0.01068955,-0.01332063,-0.04575129
 ,-0.00362036,-0.04029735,-0.00092940,0.00219903,-0.00170991,-0.0001208
 3,-0.00005189,-0.00003627,0.06551710,0.00223313,-0.00352324,-0.0031816
 4,-0.01906681,-0.01554059,-0.02349092,-0.00356222,-0.03357734,-0.01067
 560,-0.00045533,-0.00360217,0.00260455,-0.00055003,0.00008459,-0.00047
 946,0.00541054,0.04709949,-0.00050618,0.00038490,-0.00066467,-0.007015
 87,-0.01362066,-0.00739358,-0.04606592,-0.01244105,-0.19702134,-0.0002
 1103,-0.00066885,-0.00061697,-0.00003097,-0.00028798,0.00001461,0.0670
 1270,0.01862708,0.23234759,-0.00110714,-0.00005332,-0.00039352,-0.0099
 7634,-0.01685922,0.00834838,-0.10846108,-0.02402767,0.08028031,-0.0017
 1460,0.00152609,0.00155838,-0.00008953,-0.00017175,-0.00006397,0.00576
 177,-0.00036528,0.00006519,0.14965477,0.00063799,-0.00393588,0.0033004
 4,-0.02764621,-0.01978023,0.00979347,-0.02408592,-0.04022374,0.0255281
 5,0.00084443,-0.00328561,-0.00301876,-0.00069552,-0.00001205,0.0001835
 7,-0.00049149,0.00679982,0.00029031,0.03287452,0.05600379,0.00041950,-
 0.00104478,-0.00010308,0.00047974,0.00438355,0.00429392,0.08605951,0.0
 2729685,-0.12770851,-0.00021241,0.00103334,-0.00014589,-0.00015265,0.0
 0023021,0.00007984,0.01258709,0.00412259,-0.01987036,-0.10259330,-0.03
 234259,0.13930429,-0.00923538,0.01306916,-0.00105076,0.00400534,-0.000
 79427,-0.00030967,-0.00231840,-0.00431315,-0.00146949,-0.16820357,0.08
 390156,-0.02492374,0.00061550,0.00087797,-0.00032595,-0.00033839,0.000
 27173,-0.00017986,-0.00046718,0.00038674,0.00001254,0.21329687,0.02656
 544,-0.01936371,0.00462598,0.00099941,-0.00346860,-0.00046134,-0.00202
 533,-0.00388248,-0.00099086,0.08657282,-0.08250150,0.01603900,0.000078
 46,-0.00078747,-0.00023486,-0.00022514,0.00028830,0.00022762,-0.000138
 31,0.00037440,-0.00027000,-0.09694902,0.09947512,0.00004832,0.00148221
 ,-0.00002762,-0.00016445,-0.00087932,0.00494964,-0.00128290,-0.0015230
 5,0.00205727,-0.02470570,0.01541534,-0.03635786,-0.00039110,-0.0000483
 2,0.00222656,-0.00030058,0.00038054,0.00002845,0.00005026,-0.00018469,
 0.00007105,0.03725368,-0.01606620,0.02683723,-0.02474900,-0.04606369,-
 0.01155272,0.02406662,0.03969136,0.00783836,-0.14359493,0.05264453,-0.
 01929976,-0.15742398,-0.08866188,-0.03782792,0.00175342,0.00254312,-0.
 00056358,-0.02062986,0.01608426,-0.01306799,-0.03360064,0.01817546,0.0
 0340003,-0.03735475,-0.01487832,-0.01050749,0.39153323,-0.03303638,-0.
 08244305,-0.01511945,0.01804869,-0.06167287,-0.00115976,0.06766982,-0.
 12306784,0.00917800,-0.09612933,-0.15129721,-0.03260942,0.00433679,-0.
 00123579,0.00049816,0.00788043,0.00197114,0.00748864,0.00721494,0.0040
 5952,-0.00340914,0.00354925,0.00986587,0.00142350,0.02046556,0.4038201
 0,-0.01048855,-0.01815748,0.00480075,0.00607879,0.00387683,0.00601196,
 -0.01808995,0.00568217,-0.04603596,-0.03843626,-0.03086512,-0.03752041
 ,-0.00041692,0.00008062,0.00496876,-0.02396975,0.01209291,-0.00682395,
 0.01274825,-0.00354991,0.00407846,-0.00900672,-0.00286933,0.00021514,0
 .08158122,0.03370944,0.07030493||-0.00004173,-0.00001715,-0.00001986,0
 .00003282,-0.00000722,0.00003224,0.00002714,0.00000899,-0.00006793,-0.
 00004429,-0.00000878,-0.00001978,-0.00000067,0.00003151,0.00000780,-0.
 00000960,-0.00000277,-0.00001660,-0.00000415,-0.00000172,0.00004437,0.
 00001712,-0.00002663,0.00000721,0.00002334,0.00002376,0.00003255|||@
 The archive entry for this job was punched.


 ERWIN WITH HIS PSI CAN DO
 CALCULATIONS QUITE A FEW.
 BUT ONE THING HAS NOT BEEN SEEN
 JUST WHAT DOES PSI REALLY MEAN.
 -- WALTER HUCKEL, TRANS. BY FELIX BLOCH
 Job cpu time:       0 days  0 hours  0 minutes  7.0 seconds.
 Elapsed time:       0 days  0 hours  0 minutes  5.5 seconds.
 File lengths (MBytes):  RWF=      6 Int=      0 D2E=      0 Chk=      2 Scr=      1
 Normal termination of Gaussian 16 at Thu Nov 13 12:49:52 2025.
