 Default is to use a total of   8 processors:
                                8 via shared-memory
                                1 via Linda
 Entering Link 1 = C:\G16W\l1.exe PID=     24976.
  
 Copyright (c) 1988-2019, Gaussian, Inc.  All Rights Reserved.
  
 This is part of the Gaussian(R) 16 program.  It is based on
 the Gaussian(R) 09 system (copyright 2009, Gaussian, Inc.),
 the Gaussian(R) 03 system (copyright 2003, Gaussian, Inc.),
 the Gaussian(R) 98 system (copyright 1998, Gaussian, Inc.),
 the Gaussian(R) 94 system (copyright 1995, Gaussian, Inc.),
 the Gaussian 92(TM) system (copyright 1992, Gaussian, Inc.),
 the Gaussian 90(TM) system (copyright 1990, Gaussian, Inc.),
 the Gaussian 88(TM) system (copyright 1988, Gaussian, Inc.),
 the Gaussian 86(TM) system (copyright 1986, Carnegie Mellon
 University), and the Gaussian 82(TM) system (copyright 1983,
 Carnegie Mellon University). Gaussian is a federally registered
 trademark of Gaussian, Inc.
  
 This software contains proprietary and confidential information,
 including trade secrets, belonging to Gaussian, Inc.
  
 This software is provided under written license and may be
 used, copied, transmitted, or stored only in accord with that
 written license.
  
 The following legend is applicable only to US Government
 contracts under FAR:
  
                    RESTRICTED RIGHTS LEGEND
  
 Use, reproduction and disclosure by the US Government is
 subject to restrictions as set forth in subparagraphs (a)
 and (c) of the Commercial Computer Software - Restricted
 Rights clause in FAR 52.227-19.
  
 Gaussian, Inc.
 340 Quinnipiac St., Bldg. 40, Wallingford CT 06492
  
  
 ---------------------------------------------------------------
 Warning -- This program may not be used in any manner that
 competes with the business of Gaussian, Inc. or will provide
 assistance to any competitor of Gaussian, Inc.  The licensee
 of this program is prohibited from giving any competitor of
 Gaussian, Inc. access to this program.  By using this program,
 the user acknowledges that Gaussian, Inc. is engaged in the
 business of creating and licensing software in the field of
 computational chemistry and represents and warrants to the
 licensee that it is not a competitor of Gaussian, Inc. and that
 it will not use this program in any manner prohibited above.
 ---------------------------------------------------------------
  

 Cite this work as:
 Gaussian 16, Revision C.01,
 M. J. Frisch, G. W. Trucks, H. B. Schlegel, G. E. Scuseria, 
 M. A. Robb, J. R. Cheeseman, G. Scalmani, V. Barone, 
 G. A. Petersson, H. Nakatsuji, X. Li, M. Caricato, A. V. Marenich, 
 J. Bloino, B. G. Janesko, R. Gomperts, B. Mennucci, H. P. Hratchian, 
 J. V. Ortiz, A. F. Izmaylov, J. L. Sonnenberg, D. Williams-Young, 
 F. Ding, F. Lipparini, F. Egidi, J. Goings, B. Peng, A. Petrone, 
 T. Henderson, D. Ranasinghe, V. G. Zakrzewski, J. Gao, N. Rega, 
 G. Zheng, W. Liang, M. Hada, M. Ehara, K. Toyota, R. Fukuda, 
 J. Hasegawa, M. Ishida, T. Nakajima, Y. Honda, O. Kitao, H. Nakai, 
 T. Vreven, K. Throssell, J. A. Montgomery, Jr., J. E. Peralta, 
 F. Ogliaro, M. J. Bearpark, J. J. Heyd, E. N. Brothers, K. N. Kudin, 
 V. N. Staroverov, T. A. Keith, R. Kobayashi, J. Normand, 
 K. Raghavachari, A. P. Rendell, J. C. Burant, S. S. Iyengar, 
 J. Tomasi, M. Cossi, J. M. Millam, M. Klene, C. Adamo, R. Cammi, 
 J. W. Ochterski, R. L. Martin, K. Morokuma, O. Farkas, 
 J. B. Foresman, and D. J. Fox, Gaussian, Inc., Wallingford CT, 2019.
 
 ******************************************
 Gaussian 16:  EM64W-G16RevC.01 30-May-2019
                13-Nov-2025 
 ******************************************
 %chk=C:\Users\al6323\OneDrive - Imperial College London\Desktop\TSR20251113\cycl
 ohexadiene_opt+freq_PM6.chk
 Default route: MaxDisk=10GB
 ----------------------------------------------------------------------
 # opt=(calcfc,tight,cartesian,maxcycles=200,maxstep=2) freq rpm6 nosym
 m geom=connectivity scf=(xqc,verytight)
 ----------------------------------------------------------------------
 1/6=200,7=10,8=2,10=4,18=10,26=1,38=1,57=2/1,3;
 2/12=2,15=1,17=6,18=5,29=2,40=1/2;
 3/5=2,25=1,41=3900000,71=2,116=1,140=1/1,2,3;
 4/35=1/1;
 5/5=2,8=3,13=1,17=3,35=1,38=5/2,8;
 8/6=4,10=90,11=11/1;
 11/6=1,8=1,9=11,15=111,16=1,31=1/1,2,10;
 10/6=1,13=1,31=1/2;
 6/7=2,8=2,9=2,10=2,28=1/1;
 7/7=1,10=1,25=1,30=1/1,2,3,16;
 1/6=200,7=10,8=2,10=4,18=10,26=1/3(2);
 2/15=1,29=1/2;
 99/12=1/99;
 2/15=1,29=1/2;
 3/5=2,25=1,41=3900000,71=1,116=1,135=20/1,2,3;
 4/5=5,16=3,35=1/1;
 5/5=2,8=3,13=1,17=3,35=1,38=5/2,8;
 7/7=1,30=1/1,2,3,16;
 1/6=200,7=10,8=2,18=10,26=1/3(-5);
 2/15=1,29=1/2;
 6/7=2,8=2,9=2,10=2,19=2,28=1/1;
 99/9=1,12=1/99;
 -------------------
 Title Card Required
 -------------------
 Symbolic Z-matrix:
 Charge =  0 Multiplicity = 1
 C                    -2.08945   0.91602   0.80108 
 C                    -0.88049   0.69639   0.22858 
 C                    -0.35476   1.68789  -0.82347 
 C                    -0.73902   3.13162  -0.44539 
 C                    -2.2465    3.23057  -0.15558 
 C                    -2.86816   2.20733   0.48008 
 H                    -2.50773   0.18881   1.46524 
 H                     0.71119   1.62502  -0.89195 
 H                    -0.2114    3.42623   0.43763 
 H                    -2.79392   4.1073   -0.43231 
 H                    -3.89417   2.30053   0.7691 
 H                    -0.47404   3.77875  -1.25528 
 H                    -0.79126   1.43327  -1.76662 
 H                    -0.30841  -0.16951   0.48904 
 

 GradGradGradGradGradGradGradGradGradGradGradGradGradGradGradGradGradGrad
 Berny optimization.
 Initialization pass.
 No Z-matrix variables, so optimization will use Cartesian coordinates.
 Trust Radius=2.00D-02 FncErr=1.00D-07 GrdErr=1.00D-07 EigMax=2.50D+02 EigMin=1.00D-04
 Number of steps in this run=    100 maximum allowed number of steps=    100.
 GradGradGradGradGradGradGradGradGradGradGradGradGradGradGradGradGradGrad

 ---------------------------------------------------------------------------------------------------
                            Z-MATRIX (ANGSTROMS AND DEGREES)
   CD    Cent   Atom    N1       Length/X        N2       Alpha/Y        N3        Beta/Z          J
 ---------------------------------------------------------------------------------------------------
      1      1  C        0  -2.089455          0.916021          0.801078
      2      2  C        0  -0.880494          0.696390          0.228583
      3      3  C        0  -0.354763          1.687893         -0.823465
      4      4  C        0  -0.739017          3.131616         -0.445392
      5      5  C        0  -2.246496          3.230573         -0.155584
      6      6  C        0  -2.868165          2.207327          0.480080
      7      7  H        0  -2.507729          0.188807          1.465236
      8      8  H        0   0.711190          1.625015         -0.891952
      9      9  H        0  -0.211404          3.426230          0.437629
     10     10  H        0  -2.793924          4.107297         -0.432312
     11     11  H        0  -3.894167          2.300527          0.769101
     12     12  H        0  -0.474045          3.778748         -1.255275
     13     13  H        0  -0.791265          1.433275         -1.766617
     14     14  H        0  -0.308413         -0.169511          0.489040
 ---------------------------------------------------------------------------------------------------
                         Z-Matrix orientation:                         
 ---------------------------------------------------------------------
 Center     Atomic      Atomic             Coordinates (Angstroms)
 Number     Number       Type             X           Y           Z
 ---------------------------------------------------------------------
      1          6           0       -2.089455    0.916021    0.801078
      2          6           0       -0.880494    0.696390    0.228583
      3          6           0       -0.354763    1.687893   -0.823465
      4          6           0       -0.739017    3.131616   -0.445392
      5          6           0       -2.246496    3.230573   -0.155584
      6          6           0       -2.868165    2.207327    0.480080
      7          1           0       -2.507729    0.188807    1.465236
      8          1           0        0.711190    1.625015   -0.891952
      9          1           0       -0.211404    3.426230    0.437629
     10          1           0       -2.793924    4.107297   -0.432312
     11          1           0       -3.894167    2.300527    0.769101
     12          1           0       -0.474045    3.778748   -1.255275
     13          1           0       -0.791265    1.433275   -1.766617
     14          1           0       -0.308413   -0.169511    0.489040
 ---------------------------------------------------------------------
                    Distance matrix (angstroms):
                    1          2          3          4          5
     1  C    0.000000
     2  C    1.355572   0.000000
     3  C    2.498816   1.538270   0.000000
     4  C    2.878581   2.530727   1.541079   0.000000
     5  C    2.509386   2.904416   2.530727   1.538270   0.000000
     6  C    1.541719   2.509386   2.878581   2.498816   1.355572
     7  H    1.070000   2.105908   3.481476   3.929245   3.456536
     8  H    3.348527   2.156710   1.070000   2.138308   3.444991
     9  H    3.155997   2.818405   2.152377   1.070000   2.128798
    10  H    3.493103   3.966394   3.457748   2.274812   1.070000
    11  H    2.274833   3.456536   3.929245   3.481476   2.105908
    12  H    3.877285   3.444991   2.138308   1.070000   2.156710
    13  H    2.923338   2.128798   1.070000   2.152377   2.818405
    14  H    2.108994   1.070000   2.274812   3.457748   3.966394
                    6          7          8          9         10
     6  C    0.000000
     7  H    2.274833   0.000000
     8  H    3.877285   4.240338   0.000000
     9  H    2.923338   4.099999   2.421434   0.000000
    10  H    2.108994   4.363159   4.319585   2.808925   0.000000
    11  H    1.070000   2.620339   4.942138   3.865207   2.432764
    12  H    3.348527   4.942138   2.485025   1.749050   2.483355
    13  H    3.155997   3.865207   1.749050   3.027674   3.597417
    14  H    3.493103   2.432764   2.483355   3.597417   5.031674
                   11         12         13         14
    11  H    0.000000
    12  H    4.240338   0.000000
    13  H    4.099999   2.421434   0.000000
    14  H    4.363159   4.319585   2.808925   0.000000
 Symmetry turned off by external request.
 Stoichiometry    C6H8
 Framework group  C2[X(C6H8)]
 Deg. of freedom    19
 Full point group                 C2      NOp   2
 Rotational constants (GHZ):           5.0005131           4.9030838           2.6467008
 Standard basis: VSTO-6G (5D, 7F)
    32 basis functions,   192 primitive gaussians,    32 cartesian basis functions
    16 alpha electrons       16 beta electrons
       nuclear repulsion energy       132.6876439412 Hartrees.
 Integral buffers will be    131072 words long.
 Regular integral format.
 Two-electron integral symmetry is turned off.
 Do NDO integrals.
 One-electron integrals computed using PRISM.
 NBasis=    32 RedAO= F EigKep=  0.00D+00  NBF=    32
 NBsUse=    32 1.00D-04 EigRej=  0.00D+00 NBFU=    32
 Simple Huckel Guess.
 Keep J ints in memory in canonical form, NReq=862081.
 Overlap will be assumed to be unity.
 Requested convergence on RMS density matrix=1.00D-08 within  32 cycles.
 Requested convergence on MAX density matrix=1.00D-06.
 Requested convergence on             energy=1.00D-06.
 No special actions if energy rises.
 SCF Done:  E(RPM6) =  0.432934381169E-01 A.U. after   12 cycles
            NFock= 11  Conv=0.37D-08     -V/T= 1.0009
 QCSCF skips out because SCF is already converged.
 Range of M.O.s used for correlation:     1    32
 NBasis=    32 NAE=    16 NBE=    16 NFC=     0 NFV=     0
 NROrb=     32 NOA=    16 NOB=    16 NVA=    16 NVB=    16
 Symmetrizing basis deriv contribution to polar:
 IMax=3 JMax=2 DiffMx= 0.00D+00
 G2DrvN: will do    15 centers at a time, making    1 passes.
 Calling FoFCou, ICntrl=  3107 FMM=F I1Cent=   0 AccDes= 0.00D+00.
 End of G2Drv F.D. properties file   721 does not exist.
 End of G2Drv F.D. properties file   722 does not exist.
 End of G2Drv F.D. properties file   788 does not exist.
          IDoAtm=11111111111111
          Differentiating once with respect to nuclear coordinates.
          Electric field/nuclear overlap derivatives assumed to be zero.
 Keep J ints in memory in canonical form, NReq=863570.
          There are    45 degrees of freedom in the 1st order CPHF.  IDoFFX=5 NUNeed=    45.
 LinEq1:  Iter=  0 NonCon=    42 RMS=1.59D-02 Max=7.57D-02 NDo=    42
 AX will form    45 AO Fock derivatives at one time.
 LinEq1:  Iter=  1 NonCon=    42 RMS=1.69D-03 Max=1.77D-02 NDo=    45
 LinEq1:  Iter=  2 NonCon=    42 RMS=2.60D-04 Max=2.16D-03 NDo=    45
 LinEq1:  Iter=  3 NonCon=    42 RMS=4.35D-05 Max=2.90D-04 NDo=    45
 LinEq1:  Iter=  4 NonCon=    42 RMS=8.60D-06 Max=6.50D-05 NDo=    45
 LinEq1:  Iter=  5 NonCon=    42 RMS=1.57D-06 Max=1.06D-05 NDo=    45
 LinEq1:  Iter=  6 NonCon=    42 RMS=2.24D-07 Max=2.00D-06 NDo=    45
 LinEq1:  Iter=  7 NonCon=    27 RMS=3.12D-08 Max=1.97D-07 NDo=    45
 LinEq1:  Iter=  8 NonCon=     0 RMS=3.84D-09 Max=1.69D-08 NDo=    27
 Linear equations converged to 1.000D-08 1.000D-07 after     8 iterations.
 End of Minotr F.D. properties file   721 does not exist.
 End of Minotr F.D. properties file   722 does not exist.
 End of Minotr F.D. properties file   788 does not exist.

 **********************************************************************

            Population analysis using the SCF Density.

 **********************************************************************

 Alpha  occ. eigenvalues --   -1.07241  -0.94547  -0.94523  -0.80164  -0.74859
 Alpha  occ. eigenvalues --   -0.63155  -0.63116  -0.55451  -0.52081  -0.51801
 Alpha  occ. eigenvalues --   -0.48802  -0.47556  -0.43161  -0.41567  -0.40457
 Alpha  occ. eigenvalues --   -0.33172
 Alpha virt. eigenvalues --    0.02021   0.07225   0.14152   0.14808   0.15846
 Alpha virt. eigenvalues --    0.16761   0.20746   0.21260   0.21685   0.22102
 Alpha virt. eigenvalues --    0.23167   0.23237   0.23601   0.23926   0.24455
 Alpha virt. eigenvalues --    0.24622
          Condensed to atoms (all electrons):
               1          2          3          4          5          6
     1  C    4.158133   0.000000   0.000000   0.000000   0.000000   0.000000
     2  C    0.000000   4.142737   0.000000   0.000000   0.000000   0.000000
     3  C    0.000000   0.000000   4.249137   0.000000   0.000000   0.000000
     4  C    0.000000   0.000000   0.000000   4.249137   0.000000   0.000000
     5  C    0.000000   0.000000   0.000000   0.000000   4.142737   0.000000
     6  C    0.000000   0.000000   0.000000   0.000000   0.000000   4.158133
     7  H    0.000000   0.000000   0.000000   0.000000   0.000000   0.000000
     8  H    0.000000   0.000000   0.000000   0.000000   0.000000   0.000000
     9  H    0.000000   0.000000   0.000000   0.000000   0.000000   0.000000
    10  H    0.000000   0.000000   0.000000   0.000000   0.000000   0.000000
    11  H    0.000000   0.000000   0.000000   0.000000   0.000000   0.000000
    12  H    0.000000   0.000000   0.000000   0.000000   0.000000   0.000000
    13  H    0.000000   0.000000   0.000000   0.000000   0.000000   0.000000
    14  H    0.000000   0.000000   0.000000   0.000000   0.000000   0.000000
               7          8          9         10         11         12
     1  C    0.000000   0.000000   0.000000   0.000000   0.000000   0.000000
     2  C    0.000000   0.000000   0.000000   0.000000   0.000000   0.000000
     3  C    0.000000   0.000000   0.000000   0.000000   0.000000   0.000000
     4  C    0.000000   0.000000   0.000000   0.000000   0.000000   0.000000
     5  C    0.000000   0.000000   0.000000   0.000000   0.000000   0.000000
     6  C    0.000000   0.000000   0.000000   0.000000   0.000000   0.000000
     7  H    0.861620   0.000000   0.000000   0.000000   0.000000   0.000000
     8  H    0.000000   0.868412   0.000000   0.000000   0.000000   0.000000
     9  H    0.000000   0.000000   0.855786   0.000000   0.000000   0.000000
    10  H    0.000000   0.000000   0.000000   0.864176   0.000000   0.000000
    11  H    0.000000   0.000000   0.000000   0.000000   0.861620   0.000000
    12  H    0.000000   0.000000   0.000000   0.000000   0.000000   0.868412
    13  H    0.000000   0.000000   0.000000   0.000000   0.000000   0.000000
    14  H    0.000000   0.000000   0.000000   0.000000   0.000000   0.000000
              13         14
     1  C    0.000000   0.000000
     2  C    0.000000   0.000000
     3  C    0.000000   0.000000
     4  C    0.000000   0.000000
     5  C    0.000000   0.000000
     6  C    0.000000   0.000000
     7  H    0.000000   0.000000
     8  H    0.000000   0.000000
     9  H    0.000000   0.000000
    10  H    0.000000   0.000000
    11  H    0.000000   0.000000
    12  H    0.000000   0.000000
    13  H    0.855786   0.000000
    14  H    0.000000   0.864176
 Mulliken charges:
               1
     1  C   -0.158133
     2  C   -0.142737
     3  C   -0.249137
     4  C   -0.249137
     5  C   -0.142737
     6  C   -0.158133
     7  H    0.138380
     8  H    0.131588
     9  H    0.144214
    10  H    0.135824
    11  H    0.138380
    12  H    0.131588
    13  H    0.144214
    14  H    0.135824
 Sum of Mulliken charges =   0.00000
 Mulliken charges with hydrogens summed into heavy atoms:
               1
     1  C   -0.019753
     2  C   -0.006913
     3  C    0.026666
     4  C    0.026666
     5  C   -0.006913
     6  C   -0.019753
 APT charges:
               1
     1  C   -0.158133
     2  C   -0.142737
     3  C   -0.249137
     4  C   -0.249137
     5  C   -0.142737
     6  C   -0.158133
     7  H    0.138380
     8  H    0.131588
     9  H    0.144214
    10  H    0.135824
    11  H    0.138380
    12  H    0.131588
    13  H    0.144214
    14  H    0.135824
 Sum of APT charges =   0.00000
 APT charges with hydrogens summed into heavy atoms:
               1
     1  C   -0.019753
     2  C   -0.006913
     3  C    0.026666
     4  C    0.026666
     5  C   -0.006913
     6  C   -0.019753
 Charge=              0.0000 electrons
 Dipole moment (field-independent basis, Debye):
    X=              0.3919    Y=              0.1720    Z=             -0.2586  Tot=              0.5001
 N-N= 1.326876439412D+02 E-N=-1.964939185427D+02  KE=-4.896176320383D+01
  Exact polarizability:       0.000       0.000       0.000       0.000       0.000       0.000
 Approx polarizability:      38.629      -1.391      35.512     -11.427      -8.790      22.398
 Calling FoFJK, ICntrl=    100127 FMM=F ISym2X=0 I1Cent= 0 IOpClX= 0 NMat=1 NMatS=1 NMatT=0.
 -------------------------------------------------------------------
 Center     Atomic                   Forces (Hartrees/Bohr)
 Number     Number              X              Y              Z
 -------------------------------------------------------------------
      1        6          -0.002615692    0.037567584   -0.021169274
      2        6          -0.021546220    0.022804321   -0.004746542
      3        6          -0.011466190   -0.008929358    0.035930029
      4        6          -0.036558830   -0.012152819   -0.004234988
      5        6           0.011224901   -0.027335211    0.011558301
      6        6           0.036820081   -0.022552433   -0.001404577
      7        1          -0.007663427    0.001966985    0.005664409
      8        1           0.017889386   -0.003443114   -0.003435395
      9        1           0.009896883    0.007822706    0.015300328
     10        1           0.003164874    0.007852722   -0.002579846
     11        1          -0.005280762   -0.007649266    0.002878359
     12        1           0.005012490    0.013496652   -0.011679140
     13        1          -0.005925577   -0.006079369   -0.017921269
     14        1           0.007048083   -0.003369400   -0.004160395
 -------------------------------------------------------------------
 Cartesian Forces:  Max     0.037567584 RMS     0.015864356

 GradGradGradGradGradGradGradGradGradGradGradGradGradGradGradGradGradGrad
 Berny optimization.
 Search for a local minimum.
 Step number   1 out of a maximum of  100
 All quantities printed in internal units (Hartrees-Bohrs-Radians)
 Second derivative matrix not updated -- analytic derivatives used.
 ITU=  0
     Eigenvalues ---   -0.00101   0.00409   0.01190   0.01546   0.02864
     Eigenvalues ---    0.03227   0.04505   0.04789   0.04913   0.04954
     Eigenvalues ---    0.05515   0.05541   0.05911   0.07477   0.08711
     Eigenvalues ---    0.09834   0.10523   0.14474   0.15418   0.19046
     Eigenvalues ---    0.19972   0.22101   0.27153   0.34968   0.35205
     Eigenvalues ---    0.49470   0.50724   0.57816   0.63312   0.65975
     Eigenvalues ---    0.66101   0.66935   0.69144   0.69172   1.30142
     Eigenvalues ---    1.35857
 RFO step:  Lambda=-2.13791509D-02 EMin=-1.01163579D-03
 Linear search not attempted -- first point.
 Maximum step size (   0.020) exceeded in Quadratic search.
    -- Step size scaled by   0.019
 B after Tr=    -0.000261   -0.000140   -0.000041
         Rot=    1.000000   -0.000016   -0.000007    0.000011 Ang=   0.00 deg.
 Variable       Old X    -DE/DX   Delta X   Delta X   Delta X     New X
                                 (Linear)    (Quad)   (Total)
    X1       -3.94850  -0.00262   0.00000  -0.00149  -0.00169  -3.95019
    Y1        1.73103   0.03757   0.00000   0.00077   0.00067   1.73169
    Z1        1.51382  -0.02117   0.00000  -0.00112  -0.00105   1.51277
    X2       -1.66389  -0.02155   0.00000  -0.00206  -0.00228  -1.66618
    Y2        1.31599   0.02280   0.00000   0.00015   0.00003   1.31602
    Z2        0.43196  -0.00475   0.00000  -0.00107  -0.00104   0.43092
    X3       -0.67040  -0.01147   0.00000   0.00134   0.00113  -0.66928
    Y3        3.18966  -0.00893   0.00000  -0.00023  -0.00031   3.18935
    Z3       -1.55612   0.03593   0.00000   0.00245   0.00252  -1.55360
    X4       -1.39654  -0.03656   0.00000  -0.00181  -0.00195  -1.39849
    Y4        5.91790  -0.01215   0.00000   0.00003  -0.00005   5.91784
    Z4       -0.84167  -0.00423   0.00000  -0.00215  -0.00198  -0.84365
    X5       -4.24526   0.01122   0.00000   0.00048   0.00034  -4.24492
    Y5        6.10490  -0.02734   0.00000  -0.00084  -0.00089   6.10401
    Z5       -0.29401   0.01156   0.00000   0.00211   0.00232  -0.29169
    X6       -5.42005   0.03682   0.00000   0.00098   0.00082  -5.41922
    Y6        4.17124  -0.02255   0.00000  -0.00099  -0.00105   4.17020
    Z6        0.90722  -0.00140   0.00000   0.00145   0.00162   0.90884
    X7       -4.73892  -0.00766   0.00000  -0.00308  -0.00330  -4.74222
    Y7        0.35679   0.00197   0.00000   0.00029   0.00016   0.35696
    Z7        2.76890   0.00566   0.00000  -0.00161  -0.00157   2.76732
    X8        1.34395   0.01789   0.00000   0.00308   0.00286   1.34682
    Y8        3.07083  -0.00344   0.00000   0.00085   0.00074   3.07157
    Z8       -1.68554  -0.00344   0.00000   0.00771   0.00775  -1.67779
    X9       -0.39950   0.00990   0.00000   0.00221   0.00210  -0.39740
    Y9        6.47464   0.00782   0.00000   0.00655   0.00639   6.48102
    Z9        0.82700   0.01530   0.00000  -0.00510  -0.00493   0.82207
   X10       -5.27975   0.00316   0.00000   0.00168   0.00157  -5.27818
   Y10        7.76167   0.00785   0.00000   0.00146   0.00146   7.76313
   Z10       -0.81695  -0.00258   0.00000   0.00469   0.00498  -0.81198
   X11       -7.35891  -0.00528   0.00000   0.00076   0.00061  -7.35830
   Y11        4.34737  -0.00765   0.00000  -0.00131  -0.00134   4.34602
   Z11        1.45339   0.00288   0.00000   0.00314   0.00335   1.45674
   X12       -0.89581   0.00501   0.00000  -0.00509  -0.00523  -0.90105
   Y12        7.14080   0.01350   0.00000  -0.00174  -0.00178   7.13902
   Z12       -2.37213  -0.01168   0.00000  -0.00639  -0.00619  -2.37831
   X13       -1.49527  -0.00593   0.00000   0.00817   0.00792  -1.48735
   Y13        2.70850  -0.00608   0.00000  -0.00199  -0.00199   2.70651
   Z13       -3.33842  -0.01792   0.00000  -0.00175  -0.00168  -3.34011
   X14       -0.58282   0.00705   0.00000  -0.00263  -0.00289  -0.58570
   Y14       -0.32033  -0.00337   0.00000  -0.00188  -0.00204  -0.32237
   Z14        0.92415  -0.00416   0.00000  -0.00406  -0.00410   0.92005
         Item               Value     Threshold  Converged?
 Maximum Force            0.037568     0.000015     NO 
 RMS     Force            0.015864     0.000010     NO 
 Maximum Displacement     0.007920     0.000060     NO 
 RMS     Displacement     0.003082     0.000040     NO 
 Predicted change in Energy=-4.459606D-04
 GradGradGradGradGradGradGradGradGradGradGradGradGradGradGradGradGradGrad

                          Input orientation:                          
 ---------------------------------------------------------------------
 Center     Atomic      Atomic             Coordinates (Angstroms)
 Number     Number       Type             X           Y           Z
 ---------------------------------------------------------------------
      1          6           0       -2.090349    0.916373    0.800523
      2          6           0       -0.881702    0.696408    0.228031
      3          6           0       -0.354166    1.687730   -0.822130
      4          6           0       -0.740051    3.131587   -0.446439
      5          6           0       -2.246315    3.230105   -0.154354
      6          6           0       -2.867729    2.206773    0.480938
      7          1           0       -2.509475    0.188893    1.464405
      8          1           0        0.712704    1.625406   -0.887849
      9          1           0       -0.210293    3.429610    0.435020
     10          1           0       -2.793094    4.108070   -0.429679
     11          1           0       -3.893846    2.299816    0.770872
     12          1           0       -0.476814    3.777805   -1.258550
     13          1           0       -0.787074    1.432222   -1.767508
     14          1           0       -0.309941   -0.170590    0.486868
 ---------------------------------------------------------------------
                    Distance matrix (angstroms):
                    1          2          3          4          5
     1  C    0.000000
     2  C    1.355345   0.000000
     3  C    2.498465   1.537482   0.000000
     4  C    2.878436   2.530824   1.541030   0.000000
     5  C    2.507881   2.903103   2.530824   1.537482   0.000000
     6  C    1.539995   2.507881   2.878436   2.498465   1.355345
     7  H    1.070343   2.106143   3.481395   3.929585   3.455228
     8  H    3.348199   2.156469   1.070708   2.138672   3.445122
     9  H    3.159836   2.822061   2.152968   1.070716   2.128979
    10  H    3.492016   3.965531   3.458386   2.273497   1.070324
    11  H    2.273190   3.455228   3.929585   3.481395   2.106143
    12  H    3.876992   3.445122   2.138672   1.070708   2.156469
    13  H    2.925647   2.128979   1.070716   2.152968   2.822061
    14  H    2.109437   1.070324   2.273497   3.458386   3.965531
                    6          7          8          9         10
     6  C    0.000000
     7  H    2.273190   0.000000
     8  H    3.876992   4.240178   0.000000
     9  H    2.925647   4.104646   2.420136   0.000000
    10  H    2.109437   4.362103   4.320204   2.806933   0.000000
    11  H    1.070343   2.617913   4.942316   3.867531   2.433672
    12  H    3.348199   4.942316   2.487005   1.749415   2.482187
    13  H    3.159836   3.867531   1.749415   3.028756   3.601953
    14  H    3.492016   2.433672   2.482187   3.601953   5.031207
                   11         12         13         14
    11  H    0.000000
    12  H    4.240178   0.000000
    13  H    4.104646   2.420136   0.000000
    14  H    4.362103   4.320204   2.806934   0.000000
 Symmetry turned off by external request.
 Stoichiometry    C6H8
 Framework group  C1[X(C6H8)]
 Deg. of freedom    36
 Full point group                 C1      NOp   1
 Rotational constants (GHZ):           5.0010771           4.9068467           2.6470205
 Standard basis: VSTO-6G (5D, 7F)
    32 basis functions,   192 primitive gaussians,    32 cartesian basis functions
    16 alpha electrons       16 beta electrons
       nuclear repulsion energy       132.6945484313 Hartrees.
 Integral buffers will be    131072 words long.
 Regular integral format.
 Two-electron integral symmetry is turned off.
 Do NDO integrals.
 One-electron integrals computed using PRISM.
 NBasis=    32 RedAO= F EigKep=  0.00D+00  NBF=    32
 NBsUse=    32 1.00D-04 EigRej=  0.00D+00 NBFU=    32
 Initial guess from the checkpoint file:  "C:\Users\al6323\OneDrive - Imperial College London\Desktop\TSR20251113\cyclohexadiene_opt+freq_PM6.chk"
 B after Tr=    -0.000645   -0.000358   -0.000196
         Rot=    1.000000   -0.000047   -0.000021    0.000031 Ang=  -0.01 deg.
 Keep J ints in memory in canonical form, NReq=862081.
 Overlap will be assumed to be unity.
 Requested convergence on RMS density matrix=1.00D-08 within  32 cycles.
 Requested convergence on MAX density matrix=1.00D-06.
 Requested convergence on             energy=1.00D-06.
 No special actions if energy rises.
 SCF Done:  E(RPM6) =  0.428474950102E-01 A.U. after    9 cycles
            NFock=  8  Conv=0.68D-08     -V/T= 1.0009
 QCSCF skips out because SCF is already converged.
 Calling FoFJK, ICntrl=      2127 FMM=F ISym2X=0 I1Cent= 0 IOpClX= 0 NMat=1 NMatS=1 NMatT=0.
 -------------------------------------------------------------------
 Center     Atomic                   Forces (Hartrees/Bohr)
 Number     Number              X              Y              Z
 -------------------------------------------------------------------
      1        6          -0.002575414    0.036878523   -0.020762160
      2        6          -0.021150204    0.022391750   -0.004644788
      3        6          -0.011240811   -0.008765255    0.035274881
      4        6          -0.035887800   -0.011923410   -0.004171440
      5        6           0.011010360   -0.026842975    0.011336773
      6        6           0.036127713   -0.022149627   -0.001381322
      7        1          -0.007545872    0.001973062    0.005575772
      8        1           0.017570962   -0.003385083   -0.003342960
      9        1           0.009711360    0.007715399    0.014991706
     10        1           0.003128068    0.007699901   -0.002521384
     11        1          -0.005178790   -0.007558979    0.002822117
     12        1           0.004896155    0.013247771   -0.011484648
     13        1          -0.005775609   -0.005987673   -0.017589182
     14        1           0.006909884   -0.003293406   -0.004103364
 -------------------------------------------------------------------
 Cartesian Forces:  Max     0.036878523 RMS     0.015572930

 GradGradGradGradGradGradGradGradGradGradGradGradGradGradGradGradGradGrad
 Berny optimization.
 Search for a local minimum.
 Step number   2 out of a maximum of  100
 All quantities printed in internal units (Hartrees-Bohrs-Radians)
 Update second derivatives using D2CorN and points    1    2
 DE= -4.46D-04 DEPred=-4.46D-04 R= 1.00D+00
 TightC=F SS=  1.41D+00  RLast= 2.00D-02 DXNew= 3.3636D-02 5.9930D-02
 Trust test= 1.00D+00 RLast= 2.00D-02 DXMaxT set to 5.00D-02
 ITU=  1  0
     Eigenvalues ---   -0.00095   0.00409   0.01190   0.01546   0.02864
     Eigenvalues ---    0.03227   0.04505   0.04790   0.04913   0.04954
     Eigenvalues ---    0.05516   0.05541   0.05911   0.07476   0.08712
     Eigenvalues ---    0.09833   0.10522   0.14477   0.15419   0.19048
     Eigenvalues ---    0.19971   0.22103   0.27153   0.34972   0.35207
     Eigenvalues ---    0.49471   0.50728   0.57817   0.63315   0.65978
     Eigenvalues ---    0.66099   0.66937   0.69143   0.69172   1.30142
     Eigenvalues ---    1.35857
 RFO step:  Lambda=-2.77880269D-02 EMin=-9.53038339D-04
 Quartic linear search produced a step of  2.00000.
 Maximum step size (   0.050) exceeded in Quadratic search.
    -- Step size scaled by   0.049
 B after Tr=     0.000418    0.000274    0.000482
         Rot=    1.000000    0.000057    0.000025   -0.000038 Ang=   0.01 deg.
 Variable       Old X    -DE/DX   Delta X   Delta X   Delta X     New X
                                 (Linear)    (Quad)   (Total)
    X1       -3.95019  -0.00258  -0.00338   0.00156  -0.00161  -3.95180
    Y1        1.73169   0.03688   0.00133   0.00499   0.00647   1.73816
    Z1        1.51277  -0.02076  -0.00210   0.00073  -0.00128   1.51149
    X2       -1.66618  -0.02115  -0.00457   0.00108  -0.00319  -1.66937
    Y2        1.31602   0.02239   0.00007   0.00424   0.00450   1.32052
    Z2        0.43092  -0.00464  -0.00208   0.00163  -0.00021   0.43071
    X3       -0.66928  -0.01124   0.00226  -0.00453  -0.00202  -0.67130
    Y3        3.18935  -0.00877  -0.00062  -0.00062  -0.00119   3.18815
    Z3       -1.55360   0.03527   0.00505  -0.00185   0.00328  -1.55032
    X4       -1.39849  -0.03589  -0.00391   0.00013  -0.00376  -1.40226
    Y4        5.91784  -0.01192  -0.00011  -0.00131  -0.00135   5.91650
    Z4       -0.84365  -0.00417  -0.00396   0.00475   0.00053  -0.84311
    X5       -4.24492   0.01101   0.00068   0.00121   0.00186  -4.24306
    Y5        6.10401  -0.02684  -0.00177  -0.00323  -0.00508   6.09893
    Z5       -0.29169   0.01134   0.00465  -0.00314   0.00108  -0.29061
    X6       -5.41922   0.03613   0.00165   0.00245   0.00416  -5.41507
    Y6        4.17020  -0.02215  -0.00209  -0.00322  -0.00535   4.16485
    Z6        0.90884  -0.00138   0.00324  -0.00338  -0.00040   0.90844
    X7       -4.74222  -0.00755  -0.00660   0.00287  -0.00347  -4.74570
    Y7        0.35696   0.00197   0.00032   0.00784   0.00840   0.36535
    Z7        2.76732   0.00558  -0.00314   0.00706   0.00412   2.77144
    X8        1.34682   0.01757   0.00572  -0.00408   0.00192   1.34873
    Y8        3.07157  -0.00339   0.00148  -0.00510  -0.00344   3.06813
    Z8       -1.67779  -0.00334   0.01551  -0.02151  -0.00581  -1.68360
    X9       -0.39740   0.00971   0.00420  -0.00404   0.00004  -0.39735
    Y9        6.48102   0.00772   0.01277  -0.01280   0.00031   6.48134
    Z9        0.82207   0.01499  -0.00986   0.01543   0.00529   0.82736
   X10       -5.27818   0.00313   0.00314   0.00175   0.00476  -5.27342
   Y10        7.76313   0.00770   0.00292  -0.00373  -0.00102   7.76211
   Z10       -0.81198  -0.00252   0.00995  -0.01077  -0.00148  -0.81346
   X11       -7.35830  -0.00518   0.00121  -0.00084   0.00040  -7.35791
   Y11        4.34602  -0.00756  -0.00269  -0.00695  -0.00975   4.33627
   Z11        1.45674   0.00282   0.00669  -0.00840  -0.00209   1.45465
   X12       -0.90105   0.00490  -0.01047   0.01376   0.00329  -0.89776
   Y12        7.13902   0.01325  -0.00356   0.00935   0.00573   7.14475
   Z12       -2.37831  -0.01148  -0.01238   0.01513   0.00237  -2.37594
   X13       -1.48735  -0.00578   0.01584  -0.02033  -0.00411  -1.49146
   Y13        2.70651  -0.00599  -0.00398   0.00210  -0.00210   2.70441
   Z13       -3.34011  -0.01759  -0.00337   0.00066  -0.00261  -3.34271
   X14       -0.58570   0.00691  -0.00577   0.00712   0.00174  -0.58396
   Y14       -0.32237  -0.00329  -0.00408   0.00762   0.00387  -0.31850
   Z14        0.92005  -0.00410  -0.00821   0.00491  -0.00281   0.91724
         Item               Value     Threshold  Converged?
 Maximum Force            0.036879     0.000015     NO 
 RMS     Force            0.015573     0.000010     NO 
 Maximum Displacement     0.009749     0.000060     NO 
 RMS     Displacement     0.003752     0.000040     NO 
 Predicted change in Energy=-1.559859D-03
 GradGradGradGradGradGradGradGradGradGradGradGradGradGradGradGradGradGrad

                          Input orientation:                          
 ---------------------------------------------------------------------
 Center     Atomic      Atomic             Coordinates (Angstroms)
 Number     Number       Type             X           Y           Z
 ---------------------------------------------------------------------
      1          6           0       -2.091201    0.919795    0.799847
      2          6           0       -0.883391    0.698790    0.227922
      3          6           0       -0.355235    1.687099   -0.820393
      4          6           0       -0.742043    3.130874   -0.446156
      5          6           0       -2.245328    3.227415   -0.153782
      6          6           0       -2.865530    2.203943    0.480726
      7          1           0       -2.511314    0.193337    1.466585
      8          1           0        0.713719    1.623585   -0.890922
      9          1           0       -0.210269    3.429777    0.437820
     10          1           0       -2.790575    4.107531   -0.430463
     11          1           0       -3.893636    2.294657    0.769768
     12          1           0       -0.475074    3.780836   -1.257296
     13          1           0       -0.789248    1.431112   -1.768888
     14          1           0       -0.309020   -0.168541    0.485383
 ---------------------------------------------------------------------
                    Distance matrix (angstroms):
                    1          2          3          4          5
     1  C    0.000000
     2  C    1.354528   0.000000
     3  C    2.495498   1.534493   0.000000
     4  C    2.874303   2.527725   1.540832   0.000000
     5  C    2.501654   2.897329   2.527725   1.534493   0.000000
     6  C    1.533121   2.501654   2.874303   2.495498   1.354528
     7  H    1.071810   2.107107   3.479981   3.926579   3.449923
     8  H    3.349865   2.158198   1.073159   2.142191   3.445520
     9  H    3.157369   2.820539   2.154308   1.074030   2.128946
    10  H    3.487756   3.961103   3.455636   2.269491   1.071658
    11  H    2.267140   3.449923   3.926579   3.479981   2.107107
    12  H    3.876759   3.445520   2.142191   1.073159   2.158198
    13  H    2.924880   2.128946   1.074030   2.154308   2.820539
    14  H    2.111760   1.071658   2.269491   3.455636   3.961103
                    6          7          8          9         10
     6  C    0.000000
     7  H    2.267140   0.000000
     8  H    3.876759   4.243146   0.000000
     9  H    2.924880   4.102159   2.425209   0.000000
    10  H    2.111760   4.358634   4.319964   2.805574   0.000000
    11  H    1.071810   2.609965   4.943273   3.868576   2.437993
    12  H    3.349865   4.943273   2.490219   1.751223   2.480308
    13  H    3.157368   3.868576   1.751223   3.033058   3.599987
    14  H    3.487756   2.437993   2.480308   3.599987   5.028089
                   11         12         13         14
    11  H    0.000000
    12  H    4.243146   0.000000
    13  H    4.102159   2.425209   0.000000
    14  H    4.358634   4.319964   2.805574   0.000000
 Symmetry turned off by external request.
 Stoichiometry    C6H8
 Framework group  C1[X(C6H8)]
 Deg. of freedom    36
 Full point group                 C1      NOp   1
 Rotational constants (GHZ):           5.0082510           4.9234303           2.6539459
 Standard basis: VSTO-6G (5D, 7F)
    32 basis functions,   192 primitive gaussians,    32 cartesian basis functions
    16 alpha electrons       16 beta electrons
       nuclear repulsion energy       132.7548847270 Hartrees.
 Integral buffers will be    131072 words long.
 Regular integral format.
 Two-electron integral symmetry is turned off.
 Do NDO integrals.
 One-electron integrals computed using PRISM.
 NBasis=    32 RedAO= F EigKep=  0.00D+00  NBF=    32
 NBsUse=    32 1.00D-04 EigRej=  0.00D+00 NBFU=    32
 Initial guess from the checkpoint file:  "C:\Users\al6323\OneDrive - Imperial College London\Desktop\TSR20251113\cyclohexadiene_opt+freq_PM6.chk"
 B after Tr=    -0.000157    0.000046    0.001072
         Rot=    1.000000    0.000073    0.000032   -0.000048 Ang=   0.01 deg.
 Keep J ints in memory in canonical form, NReq=862081.
 Overlap will be assumed to be unity.
 Requested convergence on RMS density matrix=1.00D-08 within  32 cycles.
 Requested convergence on MAX density matrix=1.00D-06.
 Requested convergence on             energy=1.00D-06.
 No special actions if energy rises.
 SCF Done:  E(RPM6) =  0.412882084702E-01 A.U. after   10 cycles
            NFock=  9  Conv=0.29D-08     -V/T= 1.0008
 QCSCF skips out because SCF is already converged.
 Calling FoFJK, ICntrl=      2127 FMM=F ISym2X=0 I1Cent= 0 IOpClX= 0 NMat=1 NMatS=1 NMatT=0.
 -------------------------------------------------------------------
 Center     Atomic                   Forces (Hartrees/Bohr)
 Number     Number              X              Y              Z
 -------------------------------------------------------------------
      1        6          -0.002407370    0.033836770   -0.019023417
      2        6          -0.019491396    0.020582014   -0.004281723
      3        6          -0.010295815   -0.008041590    0.032395329
      4        6          -0.032947572   -0.010941529   -0.003856018
      5        6           0.010118929   -0.024696373    0.010467263
      6        6           0.033116460   -0.020355992   -0.001243635
      7        1          -0.007095531    0.002059905    0.005177556
      8        1           0.016198433   -0.003182899   -0.003026677
      9        1           0.008937730    0.007228841    0.013739345
     10        1           0.003051737    0.007052087   -0.002202519
     11        1          -0.004706340   -0.007240732    0.002611318
     12        1           0.004435434    0.012240821   -0.010591045
     13        1          -0.005199367   -0.005587762   -0.016206549
     14        1           0.006284668   -0.002953559   -0.003959227
 -------------------------------------------------------------------
 Cartesian Forces:  Max     0.033836770 RMS     0.014313648

 GradGradGradGradGradGradGradGradGradGradGradGradGradGradGradGradGradGrad
 Berny optimization.
 Search for a local minimum.
 Step number   3 out of a maximum of  100
 All quantities printed in internal units (Hartrees-Bohrs-Radians)
 Update second derivatives using D2CorN and points    1    2    3
 DE= -1.56D-03 DEPred=-1.56D-03 R= 1.00D+00
 TightC=F SS=  1.41D+00  RLast= 2.43D-02 DXNew= 8.4090D-02 7.2942D-02
 Trust test= 1.00D+00 RLast= 2.43D-02 DXMaxT set to 7.29D-02
 ITU=  1  1  0
     Eigenvalues ---   -0.00082   0.00409   0.01188   0.01547   0.02863
     Eigenvalues ---    0.03227   0.04505   0.04792   0.04916   0.04928
     Eigenvalues ---    0.05515   0.05542   0.05912   0.07479   0.08714
     Eigenvalues ---    0.09848   0.10524   0.14494   0.15423   0.19050
     Eigenvalues ---    0.20016   0.22105   0.27152   0.35029   0.35206
     Eigenvalues ---    0.49457   0.50729   0.57823   0.63433   0.65984
     Eigenvalues ---    0.66074   0.67081   0.69144   0.69171   1.30128
     Eigenvalues ---    1.35857
 RFO step:  Lambda=-2.98590626D-02 EMin=-8.16306079D-04
 Quartic linear search produced a step of  2.00000.
 Maximum step size (   0.073) exceeded in Quadratic search.
    -- Step size scaled by   0.070
 B after Tr=    -0.000725   -0.000397   -0.000182
         Rot=    1.000000   -0.000050   -0.000022    0.000033 Ang=  -0.01 deg.
 Variable       Old X    -DE/DX   Delta X   Delta X   Delta X     New X
                                 (Linear)    (Quad)   (Total)
    X1       -3.95180  -0.00241  -0.00322  -0.00415  -0.00792  -3.95971
    Y1        1.73816   0.03384   0.01293  -0.00164   0.01101   1.74917
    Z1        1.51149  -0.01902  -0.00256  -0.00508  -0.00747   1.50402
    X2       -1.66937  -0.01949  -0.00638  -0.00357  -0.01057  -1.67994
    Y2        1.32052   0.02058   0.00900  -0.00249   0.00618   1.32670
    Z2        0.43071  -0.00428  -0.00041  -0.00235  -0.00274   0.42798
    X3       -0.67130  -0.01030  -0.00404   0.00504   0.00042  -0.67087
    Y3        3.18815  -0.00804  -0.00239  -0.00084  -0.00343   3.18473
    Z3       -1.55032   0.03240   0.00656   0.00832   0.01505  -1.53527
    X4       -1.40226  -0.03295  -0.00753  -0.00605  -0.01395  -1.41621
    Y4        5.91650  -0.01094  -0.00269   0.00040  -0.00251   5.91398
    Z4       -0.84311  -0.00386   0.00107  -0.00766  -0.00612  -0.84924
    X5       -4.24306   0.01012   0.00373  -0.00025   0.00314  -4.23992
    Y5        6.09893  -0.02470  -0.01017   0.00081  -0.00944   6.08948
    Z5       -0.29061   0.01047   0.00216   0.00487   0.00764  -0.28297
    X6       -5.41507   0.03312   0.00831   0.00228   0.01018  -5.40488
    Y6        4.16485  -0.02036  -0.01070   0.00082  -0.01001   4.15484
    Z6        0.90844  -0.00124  -0.00080   0.00631   0.00597   0.91441
    X7       -4.74570  -0.00710  -0.00695  -0.00357  -0.01110  -4.75679
    Y7        0.36535   0.00206   0.01679  -0.01642   0.00001   0.36536
    Z7        2.77144   0.00518   0.00824  -0.01696  -0.00866   2.76278
    X8        1.34873   0.01620   0.00384   0.00920   0.01244   1.36118
    Y8        3.06813  -0.00318  -0.00688   0.00899   0.00178   3.06991
    Z8       -1.68360  -0.00303  -0.01161   0.02934   0.01779  -1.66581
    X9       -0.39735   0.00894   0.00009   0.00651   0.00633  -0.39102
    Y9        6.48134   0.00723   0.00063   0.01780   0.01798   6.49932
    Z9        0.82736   0.01374   0.01058  -0.01872  -0.00765   0.81971
   X10       -5.27342   0.00305   0.00952  -0.00358   0.00569  -5.26773
   Y10        7.76211   0.00705  -0.00204   0.00431   0.00230   7.76441
   Z10       -0.81346  -0.00220  -0.00296   0.01255   0.01041  -0.80305
   X11       -7.35791  -0.00471   0.00079   0.00408   0.00449  -7.35341
   Y11        4.33627  -0.00724  -0.01950   0.01665  -0.00291   4.33336
   Z11        1.45465   0.00261  -0.00417   0.01662   0.01302   1.46767
   X12       -0.89776   0.00444   0.00658  -0.01684  -0.01062  -0.90838
   Y12        7.14475   0.01224   0.01146  -0.01234  -0.00098   7.14376
   Z12       -2.37594  -0.01059   0.00474  -0.02430  -0.01899  -2.39494
   X13       -1.49146  -0.00520  -0.00822   0.02626   0.01734  -1.47412
   Y13        2.70441  -0.00559  -0.00420  -0.00342  -0.00758   2.69683
   Z13       -3.34271  -0.01621  -0.00522  -0.00291  -0.00797  -3.35069
   X14       -0.58396   0.00628   0.00348  -0.00867  -0.00590  -0.58986
   Y14       -0.31850  -0.00295   0.00774  -0.00968  -0.00239  -0.32089
   Z14        0.91724  -0.00396  -0.00561  -0.00447  -0.01027   0.90697
         Item               Value     Threshold  Converged?
 Maximum Force            0.033837     0.000015     NO 
 RMS     Force            0.014314     0.000010     NO 
 Maximum Displacement     0.018992     0.000060     NO 
 RMS     Displacement     0.009451     0.000040     NO 
 Predicted change in Energy=-2.999873D-03
 GradGradGradGradGradGradGradGradGradGradGradGradGradGradGradGradGradGrad

                          Input orientation:                          
 ---------------------------------------------------------------------
 Center     Atomic      Atomic             Coordinates (Angstroms)
 Number     Number       Type             X           Y           Z
 ---------------------------------------------------------------------
      1          6           0       -2.095390    0.925620    0.795894
      2          6           0       -0.888984    0.702061    0.226475
      3          6           0       -0.355010    1.685286   -0.812429
      4          6           0       -0.749425    3.129545   -0.449396
      5          6           0       -2.243668    3.222417   -0.149739
      6          6           0       -2.860142    2.198645    0.483886
      7          1           0       -2.517185    0.193343    1.462002
      8          1           0        0.720304    1.624528   -0.881508
      9          1           0       -0.206917    3.439290    0.433770
     10          1           0       -2.787564    4.108747   -0.424957
     11          1           0       -3.891259    2.293117    0.776656
     12          1           0       -0.480693    3.780317   -1.267346
     13          1           0       -0.780070    1.427099   -1.773107
     14          1           0       -0.312141   -0.169805    0.479949
 ---------------------------------------------------------------------
                    Distance matrix (angstroms):
                    1          2          3          4          5
     1  C    0.000000
     2  C    1.352638   0.000000
     3  C    2.488516   1.526820   0.000000
     4  C    2.866994   2.523679   1.540532   0.000000
     5  C    2.488269   2.885982   2.523679   1.526820   0.000000
     6  C    1.517493   2.488269   2.866994   2.488516   1.352638
     7  H    1.076031   2.106267   3.474757   3.924246   3.442065
     8  H    3.351161   2.160643   1.079242   2.147534   3.445847
     9  H    3.164806   2.828534   2.156727   1.081776   2.129758
    10  H    3.478775   3.954045   3.455519   2.261292   1.075709
    11  H    2.257336   3.442065   3.924246   3.474757   2.106267
    12  H    3.874726   3.445847   2.147534   1.079242   2.160643
    13  H    2.929388   2.129758   1.081776   2.156727   2.828534
    14  H    2.116543   1.075709   2.261292   3.455519   3.954045
                    6          7          8          9         10
     6  C    0.000000
     7  H    2.257336   0.000000
     8  H    3.874726   4.245194   0.000000
     9  H    2.929388   4.114702   2.425501   0.000000
    10  H    2.116543   4.354780   4.322606   2.800950   0.000000
    11  H    1.076031   2.601314   4.946012   3.873714   2.441009
    12  H    3.351161   4.946012   2.497738   1.756431   2.477729
    13  H    3.164806   3.873714   1.756431   3.041007   3.610924
    14  H    3.478775   2.441009   2.477729   3.610924   5.025194
                   11         12         13         14
    11  H    0.000000
    12  H    4.245194   0.000000
    13  H    4.114702   2.425501   0.000000
    14  H    4.354780   4.322606   2.800950   0.000000
 Symmetry turned off by external request.
 Stoichiometry    C6H8
 Framework group  C1[X(C6H8)]
 Deg. of freedom    36
 Full point group                 C1      NOp   1
 Rotational constants (GHZ):           5.0260873           4.9562367           2.6650965
 Standard basis: VSTO-6G (5D, 7F)
    32 basis functions,   192 primitive gaussians,    32 cartesian basis functions
    16 alpha electrons       16 beta electrons
       nuclear repulsion energy       132.8646365629 Hartrees.
 Integral buffers will be    131072 words long.
 Regular integral format.
 Two-electron integral symmetry is turned off.
 Do NDO integrals.
 One-electron integrals computed using PRISM.
 NBasis=    32 RedAO= F EigKep=  0.00D+00  NBF=    32
 NBsUse=    32 1.00D-04 EigRej=  0.00D+00 NBFU=    32
 Initial guess from the checkpoint file:  "C:\Users\al6323\OneDrive - Imperial College London\Desktop\TSR20251113\cyclohexadiene_opt+freq_PM6.chk"
 B after Tr=    -0.002120   -0.000929    0.001411
         Rot=    1.000000    0.000001    0.000000   -0.000001 Ang=   0.00 deg.
 Keep J ints in memory in canonical form, NReq=862081.
 Overlap will be assumed to be unity.
 Requested convergence on RMS density matrix=1.00D-08 within  32 cycles.
 Requested convergence on MAX density matrix=1.00D-06.
 Requested convergence on             energy=1.00D-06.
 No special actions if energy rises.
 SCF Done:  E(RPM6) =  0.382968659472E-01 A.U. after   10 cycles
            NFock=  9  Conv=0.91D-08     -V/T= 1.0008
 QCSCF skips out because SCF is already converged.
 Calling FoFJK, ICntrl=      2127 FMM=F ISym2X=0 I1Cent= 0 IOpClX= 0 NMat=1 NMatS=1 NMatT=0.
 -------------------------------------------------------------------
 Center     Atomic                   Forces (Hartrees/Bohr)
 Number     Number              X              Y              Z
 -------------------------------------------------------------------
      1        6          -0.002046793    0.026288852   -0.014659593
      2        6          -0.015598544    0.016301126   -0.003292719
      3        6          -0.007905711   -0.006228827    0.025460080
      4        6          -0.025802468   -0.008568492   -0.003213710
      5        6           0.007897658   -0.019681688    0.008375064
      6        6           0.025591427   -0.015953148   -0.000879132
      7        1          -0.006364162    0.002854787    0.004264456
      8        1           0.013061332   -0.002860206   -0.002317013
      9        1           0.006983187    0.006289312    0.010774775
     10        1           0.003248640    0.005290897   -0.001409381
     11        1          -0.003370558   -0.007128174    0.002160158
     12        1           0.003317948    0.010050440   -0.008492819
     13        1          -0.003748986   -0.004869556   -0.012909244
     14        1           0.004737029   -0.001785322   -0.003860921
 -------------------------------------------------------------------
 Cartesian Forces:  Max     0.026288852 RMS     0.011287435

 GradGradGradGradGradGradGradGradGradGradGradGradGradGradGradGradGradGrad
 Berny optimization.
 Search for a local minimum.
 Step number   4 out of a maximum of  100
 All quantities printed in internal units (Hartrees-Bohrs-Radians)
 Update second derivatives using D2CorN and points    1    2    3    4
 DE= -2.99D-03 DEPred=-3.00D-03 R= 9.97D-01
 TightC=F SS=  1.41D+00  RLast= 6.13D-02 DXNew= 1.2267D-01 1.8375D-01
 Trust test= 9.97D-01 RLast= 6.13D-02 DXMaxT set to 1.23D-01
 ITU=  1  1  1  0
     Eigenvalues ---   -0.00170   0.00409   0.01187   0.01547   0.02861
     Eigenvalues ---    0.03226   0.04506   0.04786   0.04853   0.04922
     Eigenvalues ---    0.05516   0.05543   0.05908   0.07479   0.08710
     Eigenvalues ---    0.09853   0.10525   0.14551   0.15429   0.19064
     Eigenvalues ---    0.20102   0.22114   0.27152   0.35194   0.35211
     Eigenvalues ---    0.49431   0.50741   0.57838   0.63728   0.65992
     Eigenvalues ---    0.66002   0.67521   0.69144   0.69173   1.30078
     Eigenvalues ---    1.35857
 RFO step:  Lambda=-1.71512175D-02 EMin=-1.70127633D-03
 Quartic linear search produced a step of  2.00000.
 Maximum step size (   0.123) exceeded in Quadratic search.
    -- Step size scaled by   0.120
 B after Tr=     0.001078    0.000640    0.000686
         Rot=    1.000000    0.000105    0.000046   -0.000069 Ang=   0.02 deg.
 Variable       Old X    -DE/DX   Delta X   Delta X   Delta X     New X
                                 (Linear)    (Quad)   (Total)
    X1       -3.95971  -0.00205  -0.01583   0.00633  -0.00881  -3.96852
    Y1        1.74917   0.02629   0.02201   0.00762   0.03004   1.77920
    Z1        1.50402  -0.01466  -0.01494   0.00553  -0.00947   1.49456
    X2       -1.67994  -0.01560  -0.02114   0.00491  -0.01538  -1.69531
    Y2        1.32670   0.01630   0.01236   0.00609   0.01895   1.34565
    Z2        0.42798  -0.00329  -0.00547   0.00373  -0.00149   0.42648
    X3       -0.67087  -0.00791   0.00085  -0.01067  -0.00905  -0.67992
    Y3        3.18473  -0.00623  -0.00685  -0.00050  -0.00712   3.17761
    Z3       -1.53527   0.02546   0.03010  -0.00923   0.02082  -1.51445
    X4       -1.41621  -0.02580  -0.02790   0.00478  -0.02278  -1.43899
    Y4        5.91398  -0.00857  -0.00503  -0.00209  -0.00685   5.90713
    Z4       -0.84924  -0.00321  -0.01225   0.01312   0.00019  -0.84905
    X5       -4.23992   0.00790   0.00628   0.00138   0.00791  -4.23200
    Y5        6.08948  -0.01968  -0.01889  -0.00333  -0.02222   6.06726
    Z5       -0.28297   0.00838   0.01528  -0.00788   0.00642  -0.27655
    X6       -5.40488   0.02559   0.02037   0.00107   0.02186  -5.38303
    Y6        4.15484  -0.01595  -0.02002  -0.00437  -0.02431   4.13053
    Z6        0.91441  -0.00088   0.01195  -0.01041   0.00085   0.91527
    X7       -4.75679  -0.00636  -0.02219   0.01229  -0.00913  -4.76592
    Y7        0.36536   0.00285   0.00002   0.02154   0.02212   0.38749
    Z7        2.76278   0.00426  -0.01732   0.02543   0.00828   2.77106
    X8        1.36118   0.01306   0.02489  -0.01384   0.01185   1.37303
    Y8        3.06991  -0.00286   0.00356  -0.01249  -0.00845   3.06147
    Z8       -1.66581  -0.00232   0.03558  -0.05046  -0.01471  -1.68052
    X9       -0.39102   0.00698   0.01267  -0.00895   0.00382  -0.38720
    Y9        6.49932   0.00629   0.03595  -0.03296   0.00376   6.50307
    Z9        0.81971   0.01077  -0.01531   0.03461   0.01858   0.83829
   X10       -5.26773   0.00325   0.01138   0.00241   0.01386  -5.25387
   Y10        7.76441   0.00529   0.00460  -0.00722  -0.00289   7.76152
   Z10       -0.80305  -0.00141   0.02081  -0.02332  -0.00394  -0.80699
   X11       -7.35341  -0.00337   0.00898  -0.00620   0.00313  -7.35028
   Y11        4.33336  -0.00713  -0.00582  -0.01886  -0.02476   4.30861
   Z11        1.46767   0.00216   0.02603  -0.02946  -0.00432   1.46335
   X12       -0.90838   0.00332  -0.02124   0.03101   0.01008  -0.89830
   Y12        7.14376   0.01005  -0.00196   0.02002   0.01807   7.16184
   Z12       -2.39494  -0.00849  -0.03798   0.03913   0.00024  -2.39470
   X13       -1.47412  -0.00375   0.03469  -0.04787  -0.01217  -1.48628
   Y13        2.69683  -0.00487  -0.01516   0.00802  -0.00742   2.68941
   Z13       -3.35069  -0.01291  -0.01595   0.00289  -0.01307  -3.36376
   X14       -0.58986   0.00474  -0.01179   0.01556   0.00480  -0.58506
   Y14       -0.32089  -0.00179  -0.00478   0.01511   0.01108  -0.30981
   Z14        0.90697  -0.00386  -0.02054   0.01146  -0.00838   0.89859
         Item               Value     Threshold  Converged?
 Maximum Force            0.026289     0.000015     NO 
 RMS     Force            0.011287     0.000010     NO 
 Maximum Displacement     0.030037     0.000060     NO 
 RMS     Displacement     0.013615     0.000040     NO 
 Predicted change in Energy=-4.112602D-03
 GradGradGradGradGradGradGradGradGradGradGradGradGradGradGradGradGradGrad

                          Input orientation:                          
 ---------------------------------------------------------------------
 Center     Atomic      Atomic             Coordinates (Angstroms)
 Number     Number       Type             X           Y           Z
 ---------------------------------------------------------------------
      1          6           0       -2.100051    0.941515    0.790885
      2          6           0       -0.897121    0.712087    0.225686
      3          6           0       -0.359799    1.681518   -0.801410
      4          6           0       -0.761482    3.125918   -0.449297
      5          6           0       -2.239480    3.210658   -0.146344
      6          6           0       -2.848575    2.185781    0.484338
      7          1           0       -2.522017    0.205050    1.466384
      8          1           0        0.726574    1.620058   -0.889293
      9          1           0       -0.204896    3.441277    0.443602
     10          1           0       -2.780227    4.107220   -0.427040
     11          1           0       -3.889601    2.280016    0.774369
     12          1           0       -0.475361    3.789880   -1.267219
     13          1           0       -0.786508    1.423173   -1.780025
     14          1           0       -0.309600   -0.163942    0.475514
 ---------------------------------------------------------------------
                    Distance matrix (angstroms):
                    1          2          3          4          5
     1  C    0.000000
     2  C    1.348751   0.000000
     3  C    2.472142   1.511105   0.000000
     4  C    2.846302   2.510096   1.540007   0.000000
     5  C    2.459034   2.860628   2.510096   1.511105   0.000000
     6  C    1.484068   2.459034   2.846302   2.472142   1.348751
     7  H    1.084773   2.106348   3.463818   3.911622   3.422630
     8  H    3.357563   2.168865   1.091653   2.162296   3.446659
     9  H    3.156110   2.824030   2.161204   1.098412   2.130905
    10  H    3.459432   3.936886   3.447123   2.244723   1.083984
    11  H    2.234804   3.422630   3.911622   3.463818   2.106349
    12  H    3.871511   3.446659   2.162296   1.091653   2.168865
    13  H    2.926939   2.130905   1.098412   2.161204   2.824030
    14  H    2.127724   1.083984   2.244723   3.447122   3.936886
                    6          7          8          9         10
     6  C    0.000000
     7  H    2.234804   0.000000
     8  H    3.871511   4.254974   0.000000
     9  H    2.926939   4.109537   2.441533   0.000000
    10  H    2.127724   4.344957   4.324038   2.798898   0.000000
    11  H    1.084774   2.579662   4.950999   3.877498   2.452094
    12  H    3.357563   4.950999   2.509105   1.766801   2.473664
    13  H    3.156110   3.877497   1.766801   3.058682   3.606881
    14  H    3.459432   2.452094   2.473664   3.606881   5.016117
                   11         12         13         14
    11  H    0.000000
    12  H    4.254974   0.000000
    13  H    4.109537   2.441533   0.000000
    14  H    4.344957   4.324038   2.798898   0.000000
 Symmetry turned off by external request.
 Stoichiometry    C6H8
 Framework group  C1[X(C6H8)]
 Deg. of freedom    36
 Full point group                 C1      NOp   1
 Rotational constants (GHZ):           5.0691144           5.0305009           2.6975450
 Standard basis: VSTO-6G (5D, 7F)
    32 basis functions,   192 primitive gaussians,    32 cartesian basis functions
    16 alpha electrons       16 beta electrons
       nuclear repulsion energy       133.1525593868 Hartrees.
 Integral buffers will be    131072 words long.
 Regular integral format.
 Two-electron integral symmetry is turned off.
 Do NDO integrals.
 One-electron integrals computed using PRISM.
 NBasis=    32 RedAO= F EigKep=  0.00D+00  NBF=    32
 NBsUse=    32 1.00D-04 EigRej=  0.00D+00 NBFU=    32
 Initial guess from the checkpoint file:  "C:\Users\al6323\OneDrive - Imperial College London\Desktop\TSR20251113\cyclohexadiene_opt+freq_PM6.chk"
 B after Tr=    -0.001444   -0.000140    0.005078
         Rot=    1.000000    0.000310    0.000136   -0.000205 Ang=   0.05 deg.
 Keep J ints in memory in canonical form, NReq=862081.
 Overlap will be assumed to be unity.
 Requested convergence on RMS density matrix=1.00D-08 within  32 cycles.
 Requested convergence on MAX density matrix=1.00D-06.
 Requested convergence on             energy=1.00D-06.
 No special actions if energy rises.
 SCF Done:  E(RPM6) =  0.342768882240E-01 A.U. after   11 cycles
            NFock= 10  Conv=0.17D-08     -V/T= 1.0007
 QCSCF skips out because SCF is already converged.
 Calling FoFJK, ICntrl=      2127 FMM=F ISym2X=0 I1Cent= 0 IOpClX= 0 NMat=1 NMatS=1 NMatT=0.
 -------------------------------------------------------------------
 Center     Atomic                   Forces (Hartrees/Bohr)
 Number     Number              X              Y              Z
 -------------------------------------------------------------------
      1        6          -0.000025489    0.007939736   -0.004804665
      2        6          -0.007311608    0.006652775   -0.000997830
      3        6          -0.002513622   -0.001949120    0.010377245
      4        6          -0.010037057   -0.003560418   -0.002094179
      5        6           0.002726788   -0.008665440    0.004023659
      6        6           0.008170186   -0.004364340   -0.000570571
      7        1          -0.004712414    0.004188655    0.002210628
      8        1           0.006461282   -0.002144036   -0.000747415
      9        1           0.002969417    0.004219206    0.004829403
     10        1           0.003490804    0.001637774    0.000310835
     11        1          -0.000609309   -0.006524810    0.001301544
     12        1           0.000924938    0.005386469   -0.004127276
     13        1          -0.000961977   -0.003337975   -0.006154242
     14        1           0.001428061    0.000521525   -0.003557136
 -------------------------------------------------------------------
 Cartesian Forces:  Max     0.010377245 RMS     0.004675639

 GradGradGradGradGradGradGradGradGradGradGradGradGradGradGradGradGradGrad
 Berny optimization.
 Search for a local minimum.
 Step number   5 out of a maximum of  100
 All quantities printed in internal units (Hartrees-Bohrs-Radians)
 Update second derivatives using D2CorN and points    1    2    3    4    5

 DE= -4.02D-03 DEPred=-4.11D-03 R= 9.77D-01
 TightC=F SS=  1.41D+00  RLast= 8.82D-02 DXNew= 2.0631D-01 2.6470D-01
 Trust test= 9.77D-01 RLast= 8.82D-02 DXMaxT set to 2.06D-01
 ITU=  1  1  1  1  0
     Eigenvalues ---   -0.00250   0.00409   0.01165   0.01548   0.02852
     Eigenvalues ---    0.03226   0.04373   0.04507   0.04811   0.04935
     Eigenvalues ---    0.05516   0.05544   0.05857   0.07490   0.08695
     Eigenvalues ---    0.09870   0.10531   0.14667   0.15445   0.19085
     Eigenvalues ---    0.20570   0.22127   0.27151   0.35212   0.35573
     Eigenvalues ---    0.49255   0.50749   0.57869   0.64363   0.65570
     Eigenvalues ---    0.66030   0.69045   0.69148   0.70487   1.29837
     Eigenvalues ---    1.35856
 RFO step:  Lambda=-6.15206832D-03 EMin=-2.49829168D-03
 Quartic linear search produced a step of  0.69416.
 Maximum step size (   0.206) exceeded in Quadratic search.
    -- Step size scaled by   0.200
 B after Tr=    -0.002207   -0.001304   -0.001356
         Rot=    1.000000   -0.000212   -0.000093    0.000140 Ang=  -0.03 deg.
 Variable       Old X    -DE/DX   Delta X   Delta X   Delta X     New X
                                 (Linear)    (Quad)   (Total)
    X1       -3.96852  -0.00003  -0.00612  -0.00851  -0.01606  -3.98458
    Y1        1.77920   0.00794   0.02085  -0.00936   0.01067   1.78987
    Z1        1.49456  -0.00480  -0.00657  -0.00248  -0.00891   1.48565
    X2       -1.69531  -0.00731  -0.01067  -0.01505  -0.02748  -1.72279
    Y2        1.34565   0.00665   0.01315  -0.00839   0.00376   1.34941
    Z2        0.42648  -0.00100  -0.00103  -0.01032  -0.01182   0.41467
    X3       -0.67992  -0.00251  -0.00628   0.01823   0.01035  -0.66957
    Y3        3.17761  -0.00195  -0.00494   0.00180  -0.00364   3.17397
    Z3       -1.51445   0.01038   0.01445   0.01409   0.02866  -1.48579
    X4       -1.43899  -0.01004  -0.01582  -0.00629  -0.02283  -1.46182
    Y4        5.90713  -0.00356  -0.00476   0.00344  -0.00184   5.90529
    Z4       -0.84905  -0.00209   0.00013  -0.02197  -0.02042  -0.86947
    X5       -4.23200   0.00273   0.00549   0.00040   0.00533  -4.22667
    Y5        6.06726  -0.00867  -0.01543   0.00196  -0.01348   6.05378
    Z5       -0.27655   0.00402   0.00445   0.01999   0.02643  -0.25012
    X6       -5.38303   0.00817   0.01517  -0.00498   0.00931  -5.37372
    Y6        4.13053  -0.00436  -0.01687   0.00344  -0.01363   4.11690
    Z6        0.91527  -0.00057   0.00059   0.01139   0.01337   0.92863
    X7       -4.76592  -0.00471  -0.00634  -0.03380  -0.04171  -4.80763
    Y7        0.38749   0.00419   0.01536   0.00924   0.02346   0.41095
    Z7        2.77106   0.00221   0.00575  -0.00244   0.00302   2.77408
    X8        1.37303   0.00646   0.00823   0.02734   0.03391   1.40694
    Y8        3.06147  -0.00214  -0.00586   0.00465  -0.00223   3.05923
    Z8       -1.68052  -0.00075  -0.01021   0.08182   0.07128  -1.60924
    X9       -0.38720   0.00297   0.00265   0.01818   0.02060  -0.36659
    Y9        6.50307   0.00422   0.00261   0.06642   0.06749   6.57056
    Z9        0.83829   0.00483   0.01290  -0.05584  -0.04145   0.79684
   X10       -5.25387   0.00349   0.00962   0.01988   0.02933  -5.22454
   Y10        7.76152   0.00164  -0.00200   0.02196   0.02043   7.78195
   Z10       -0.80699   0.00031  -0.00273   0.05238   0.05256  -0.75443
   X11       -7.35028  -0.00061   0.00217  -0.00075   0.00068  -7.34960
   Y11        4.30861  -0.00652  -0.01719  -0.02441  -0.04147   4.26713
   Z11        1.46335   0.00130  -0.00300   0.02525   0.02406   1.48741
   X12       -0.89830   0.00092   0.00699  -0.05758  -0.05125  -0.94955
   Y12        7.16184   0.00539   0.01254  -0.01792  -0.00538   7.15646
   Z12       -2.39470  -0.00413   0.00017  -0.06186  -0.05984  -2.45454
   X13       -1.48628  -0.00096  -0.00844   0.08523   0.07470  -1.41159
   Y13        2.68941  -0.00334  -0.00515  -0.02103  -0.02566   2.66375
   Z13       -3.36376  -0.00615  -0.00907  -0.01240  -0.02144  -3.38520
   X14       -0.58506   0.00143   0.00333  -0.02608  -0.02489  -0.60995
   Y14       -0.30981   0.00052   0.00769  -0.02468  -0.01848  -0.32829
   Z14        0.89859  -0.00356  -0.00582  -0.04828  -0.05548   0.84311
         Item               Value     Threshold  Converged?
 Maximum Force            0.010377     0.000015     NO 
 RMS     Force            0.004676     0.000010     NO 
 Maximum Displacement     0.074697     0.000060     NO 
 RMS     Displacement     0.032053     0.000040     NO 
 Predicted change in Energy=-2.052708D-03
 GradGradGradGradGradGradGradGradGradGradGradGradGradGradGradGradGradGrad

                          Input orientation:                          
 ---------------------------------------------------------------------
 Center     Atomic      Atomic             Coordinates (Angstroms)
 Number     Number       Type             X           Y           Z
 ---------------------------------------------------------------------
      1          6           0       -2.108549    0.947160    0.786170
      2          6           0       -0.911662    0.714076    0.219431
      3          6           0       -0.354321    1.679595   -0.786246
      4          6           0       -0.773561    3.124944   -0.460104
      5          6           0       -2.236657    3.203525   -0.132356
      6          6           0       -2.843649    2.178568    0.491411
      7          1           0       -2.544090    0.217466    1.467980
      8          1           0        0.744520    1.618876   -0.851571
      9          1           0       -0.193993    3.476992    0.421667
     10          1           0       -2.764709    4.118030   -0.399229
     11          1           0       -3.889239    2.258069    0.787102
     12          1           0       -0.502480    3.787035   -1.298887
     13          1           0       -0.746980    1.409596   -1.791373
     14          1           0       -0.322774   -0.173724    0.446154
 ---------------------------------------------------------------------
                    Distance matrix (angstroms):
                    1          2          3          4          5
     1  C    0.000000
     2  C    1.344641   0.000000
     3  C    2.467036   1.501414   0.000000
     4  C    2.842206   2.508610   1.539859   0.000000
     5  C    2.439525   2.841958   2.508610   1.501414   0.000000
     6  C    1.464111   2.439525   2.842206   2.467036   1.344641
     7  H    1.089502   2.114313   3.466186   3.912251   3.401784
     8  H    3.357588   2.169942   1.102455   2.173949   3.451926
     9  H    3.193500   2.861758   2.171497   1.112366   2.134058
    10  H    3.448208   3.924720   3.450466   2.225892   1.089211
    11  H    2.211186   3.401784   3.912251   3.466186   2.114313
    12  H    3.871926   3.451926   2.173949   1.102454   2.169942
    13  H    2.951516   2.134058   1.112366   2.171497   2.861758
    14  H    2.135646   1.089211   2.225892   3.450467   3.924720
                    6          7          8          9         10
     6  C    0.000000
     7  H    2.211186   0.000000
     8  H    3.871926   4.261364   0.000000
     9  H    2.951516   4.152377   2.440192   0.000000
    10  H    2.135646   4.330074   4.331867   2.773695   0.000000
    11  H    1.089502   2.537140   4.956364   3.908217   2.476168
    12  H    3.357588   4.956364   2.540868   1.775274   2.456953
    13  H    3.193500   3.908218   1.775274   3.078550   3.653069
    14  H    3.448208   2.476168   2.456953   3.653069   5.009678
                   11         12         13         14
    11  H    0.000000
    12  H    4.261364   0.000000
    13  H    4.152378   2.440192   0.000000
    14  H    4.330074   4.331867   2.773695   0.000000
 Symmetry turned off by external request.
 Stoichiometry    C6H8
 Framework group  C1[X(C6H8)]
 Deg. of freedom    36
 Full point group                 C1      NOp   1
 Rotational constants (GHZ):           5.0807953           5.0762270           2.7052739
 Standard basis: VSTO-6G (5D, 7F)
    32 basis functions,   192 primitive gaussians,    32 cartesian basis functions
    16 alpha electrons       16 beta electrons
       nuclear repulsion energy       133.2400063937 Hartrees.
 Integral buffers will be    131072 words long.
 Regular integral format.
 Two-electron integral symmetry is turned off.
 Do NDO integrals.
 One-electron integrals computed using PRISM.
 NBasis=    32 RedAO= F EigKep=  0.00D+00  NBF=    32
 NBsUse=    32 1.00D-04 EigRej=  0.00D+00 NBFU=    32
 Initial guess from the checkpoint file:  "C:\Users\al6323\OneDrive - Imperial College London\Desktop\TSR20251113\cyclohexadiene_opt+freq_PM6.chk"
 B after Tr=    -0.006716   -0.003589   -0.000965
         Rot=    1.000000   -0.000406   -0.000178    0.000268 Ang=  -0.06 deg.
 Keep J ints in memory in canonical form, NReq=862081.
 Overlap will be assumed to be unity.
 Requested convergence on RMS density matrix=1.00D-08 within  32 cycles.
 Requested convergence on MAX density matrix=1.00D-06.
 Requested convergence on             energy=1.00D-06.
 No special actions if energy rises.
 SCF Done:  E(RPM6) =  0.324095541363E-01 A.U. after   11 cycles
            NFock= 10  Conv=0.28D-08     -V/T= 1.0007
 QCSCF skips out because SCF is already converged.
 Calling FoFJK, ICntrl=      2127 FMM=F ISym2X=0 I1Cent= 0 IOpClX= 0 NMat=1 NMatS=1 NMatT=0.
 -------------------------------------------------------------------
 Center     Atomic                   Forces (Hartrees/Bohr)
 Number     Number              X              Y              Z
 -------------------------------------------------------------------
      1        6           0.000765929   -0.003685079    0.001646293
      2        6          -0.000660002   -0.000363789    0.000033983
      3        6           0.001144603    0.000822364   -0.000319478
      4        6           0.000963728    0.000103149   -0.001071933
      5        6          -0.000374429   -0.000090304    0.000648702
      6        6          -0.003146692    0.002639970   -0.000075075
      7        1          -0.002528642    0.003681960    0.000634149
      8        1           0.001206091   -0.001154006    0.000262655
      9        1          -0.000471459    0.001641408   -0.000195405
     10        1           0.002661000   -0.000873628    0.001192345
     11        1           0.000893978   -0.004399556    0.000444682
     12        1          -0.000559806    0.001437731   -0.000689208
     13        1           0.000935827   -0.001437577   -0.000111049
     14        1          -0.000830125    0.001677358   -0.002400661
 -------------------------------------------------------------------
 Cartesian Forces:  Max     0.004399556 RMS     0.001617807

 GradGradGradGradGradGradGradGradGradGradGradGradGradGradGradGradGradGrad
 Berny optimization.
 Search for a local minimum.
 Step number   6 out of a maximum of  100
 All quantities printed in internal units (Hartrees-Bohrs-Radians)
 Update second derivatives using D2CorN and points    1    2    3    4    5
                                                          6
 DE= -1.87D-03 DEPred=-2.05D-03 R= 9.10D-01
 TightC=F SS=  1.41D+00  RLast= 2.08D-01 DXNew= 3.4697D-01 6.2317D-01
 Trust test= 9.10D-01 RLast= 2.08D-01 DXMaxT set to 3.47D-01
 ITU=  1  1  1  1  1  0
     Eigenvalues ---    0.00177   0.00409   0.01226   0.01548   0.02844
     Eigenvalues ---    0.03225   0.04511   0.04569   0.04814   0.04938
     Eigenvalues ---    0.05515   0.05548   0.05895   0.07484   0.08698
     Eigenvalues ---    0.09865   0.10529   0.14741   0.15457   0.19098
     Eigenvalues ---    0.20523   0.22149   0.27150   0.35225   0.35753
     Eigenvalues ---    0.49276   0.50794   0.57874   0.64384   0.65601
     Eigenvalues ---    0.66066   0.69038   0.69143   0.70524   1.29867
     Eigenvalues ---    1.35857
 RFO step:  Lambda=-1.90609448D-03 EMin= 1.76637466D-03
 Quartic linear search produced a step of  0.41975.
 Maximum step size (   0.347) exceeded in Quadratic search.
    -- Step size scaled by   0.868
 B after Tr=    -0.002917   -0.001873   -0.003057
         Rot=    1.000000   -0.000375   -0.000165    0.000247 Ang=  -0.05 deg.
 Variable       Old X    -DE/DX   Delta X   Delta X   Delta X     New X
                                 (Linear)    (Quad)   (Total)
    X1       -3.98458   0.00077  -0.00674  -0.00984  -0.01814  -4.00272
    Y1        1.78987  -0.00369   0.00448  -0.02441  -0.02094   1.76893
    Z1        1.48565   0.00165  -0.00374   0.00103  -0.00312   1.48253
    X2       -1.72279  -0.00066  -0.01153  -0.02101  -0.03467  -1.75746
    Y2        1.34941  -0.00036   0.00158  -0.02057  -0.02029   1.32912
    Z2        0.41467   0.00003  -0.00496  -0.01908  -0.02553   0.38914
    X3       -0.66957   0.00114   0.00434   0.03627   0.03879  -0.63078
    Y3        3.17397   0.00082  -0.00153   0.00617   0.00417   3.17815
    Z3       -1.48579  -0.00032   0.01203   0.01871   0.03027  -1.45552
    X4       -1.46182   0.00096  -0.00958  -0.00356  -0.01343  -1.47525
    Y4        5.90529   0.00010  -0.00077   0.00819   0.00696   5.91224
    Z4       -0.86947  -0.00107  -0.00857  -0.04030  -0.04700  -0.91648
    X5       -4.22667  -0.00037   0.00224  -0.00042   0.00184  -4.22483
    Y5        6.05378  -0.00009  -0.00566   0.01116   0.00587   6.05966
    Z5       -0.25012   0.00065   0.01110   0.03322   0.04720  -0.20292
    X6       -5.37372  -0.00315   0.00391  -0.01625  -0.01290  -5.38662
    Y6        4.11690   0.00264  -0.00572   0.01296   0.00731   4.12421
    Z6        0.92863  -0.00008   0.00561   0.01618   0.02360   0.95223
    X7       -4.80763  -0.00253  -0.01751  -0.05607  -0.07535  -4.88299
    Y7        0.41095   0.00368   0.00985   0.02750   0.03580   0.44676
    Z7        2.77408   0.00063   0.00127   0.01204   0.01219   2.78628
    X8        1.40694   0.00121   0.01423   0.04470   0.05706   1.46400
    Y8        3.05923  -0.00115  -0.00094   0.00508   0.00262   3.06186
    Z8       -1.60924   0.00026   0.02992   0.13274   0.16142  -1.44781
    X9       -0.36659  -0.00047   0.00865   0.01616   0.02544  -0.34116
    Y9        6.57056   0.00164   0.02833   0.10453   0.13064   6.70121
[...]
                                 (Linear)    (Quad)   (Total)
    X1       -4.04140   0.00000   0.00000   0.00000   0.00000  -4.04140
    Y1        1.74771   0.00000   0.00000   0.00000   0.00000   1.74771
    Z1        1.44455   0.00000   0.00000   0.00000   0.00000   1.44455
    X2       -1.79452   0.00000   0.00000   0.00000   0.00000  -1.79452
    Y2        1.30695   0.00000   0.00000   0.00000   0.00000   1.30695
    Z2        0.35310   0.00000   0.00000   0.00000   0.00000   0.35309
    X3       -0.58355   0.00000   0.00000   0.00000   0.00000  -0.58355
    Y3        3.18367   0.00000   0.00000   0.00000   0.00000   3.18367
    Z3       -1.39785   0.00000   0.00000   0.00000   0.00000  -1.39785
    X4       -1.50824   0.00000   0.00000   0.00000   0.00000  -1.50824
    Y4        5.91298   0.00000   0.00000   0.00000   0.00000   5.91298
    Z4       -0.98354   0.00000   0.00000   0.00000   0.00000  -0.98354
    X5       -4.21602   0.00000   0.00000   0.00000   0.00000  -4.21602
    Y5        6.06943   0.00000   0.00000   0.00000   0.00000   6.06943
    Z5       -0.14824   0.00000   0.00000   0.00000   0.00000  -0.14823
    X6       -5.37611   0.00000   0.00000   0.00000   0.00000  -5.37611
    Y6        4.13307   0.00000   0.00000   0.00000   0.00000   4.13307
    Z6        1.00881   0.00000   0.00000   0.00000   0.00000   1.00881
    X7       -4.95163   0.00000   0.00000   0.00000   0.00000  -4.95163
    Y7        0.38225   0.00000   0.00000   0.00000   0.00000   0.38225
    Z7        2.68062   0.00000   0.00000   0.00000   0.00000   2.68062
    X8        1.49913   0.00000   0.00000   0.00000   0.00000   1.49913
    Y8        3.11827   0.00000   0.00000   0.00000   0.00000   3.11827
    Z8       -1.20634   0.00000   0.00000   0.00000   0.00000  -1.20634
    X9       -0.32281   0.00000   0.00000   0.00000   0.00000  -0.32281
    Y9        6.84281   0.00000   0.00000   0.00000   0.00000   6.84281
    Z9        0.48151   0.00000   0.00000   0.00000   0.00000   0.48151
   X10       -5.15021   0.00000   0.00000   0.00000   0.00000  -5.15021
   Y10        7.86630   0.00000   0.00000   0.00000   0.00000   7.86630
   Z10       -0.49024   0.00000   0.00000   0.00000   0.00000  -0.49024
   X11       -7.32219   0.00000   0.00000   0.00000   0.00000  -7.32219
   Y11        4.24465   0.00000   0.00000   0.00000   0.00000   4.24465
   Z11        1.65781   0.00000   0.00000   0.00000   0.00000   1.65781
   X12       -1.22327   0.00000   0.00000   0.00000   0.00000  -1.22327
   Y12        7.01773   0.00000   0.00000   0.00000   0.00000   7.01773
   Z12       -2.73763   0.00000   0.00000   0.00000   0.00000  -2.73763
   X13       -0.99918   0.00000   0.00000   0.00000   0.00000  -0.99917
   Y13        2.59177   0.00000   0.00000   0.00000   0.00000   2.59177
   Z13       -3.37095   0.00000   0.00000   0.00000   0.00000  -3.37095
   X14       -0.76166   0.00000   0.00000   0.00000   0.00000  -0.76166
   Y14       -0.44661   0.00000   0.00000   0.00000   0.00000  -0.44661
   Z14        0.62999   0.00000   0.00000   0.00000   0.00000   0.62999
         Item               Value     Threshold  Converged?
 Maximum Force            0.000000     0.000015     YES
 RMS     Force            0.000000     0.000010     YES
 Maximum Displacement     0.000002     0.000060     YES
 RMS     Displacement     0.000000     0.000040     YES
 Predicted change in Energy=-2.738219D-13
 Optimization completed.
    -- Stationary point found.
 GradGradGradGradGradGradGradGradGradGradGradGradGradGradGradGradGradGrad


 ----------------------------------------------------------------------

 Electric dipole moment (input orientation):
 (Debye = 10**-18 statcoulomb cm , SI units = C m)
                  (au)            (Debye)         (10**-30 SI)
   Tot        0.295166D+00      0.750236D+00      0.250252D+01
   x          0.231315D+00      0.587943D+00      0.196117D+01
   y          0.101543D+00      0.258097D+00      0.860919D+00
   z         -0.152661D+00     -0.388025D+00     -0.129431D+01

 Dipole polarizability, Alpha (input orientation).
 (esu units = cm**3 , SI units = C**2 m**2 J**-1)
 Alpha(0;0):
               (au)            (10**-24 esu)      (10**-40 SI)
   iso        0.452639D+02      0.670742D+01      0.746301D+01
   aniso      0.374363D+02      0.554748D+01      0.617241D+01
   xx         0.507157D+02      0.751529D+01      0.836189D+01
   yx        -0.420172D+01     -0.622631D+00     -0.692770D+00
   yy         0.544275D+02      0.806533D+01      0.897389D+01
   zx        -0.143354D+02     -0.212429D+01     -0.236359D+01
   zy        -0.896371D+01     -0.132828D+01     -0.147792D+01
   zz         0.306485D+02      0.454164D+01      0.505326D+01

 First dipole hyperpolarizability, Beta (input orientation).
 ||, _|_  parallel and perpendicular components, (z) with respect to z axis,
 vector components x,y,z.  Values do not include the 1/n! factor of 1/2.
 (esu units = statvolt**-1 cm**4 , SI units = C**3 m**3 J**-2)
 Beta(0;0,0):
               (au)            (10**-30 esu)      (10**-50 SI)
   || (z)     0.725303D+01      0.626605D-01      0.232558D-01
   _|_(z)     0.241768D+01      0.208868D-01      0.775194D-02
   x         -0.549501D+02     -0.474726D+00     -0.176190D+00
   y         -0.241216D+02     -0.208392D+00     -0.773426D-01
   z          0.362651D+02      0.313303D+00      0.116279D+00
   ||         0.140236D+02      0.121153D+00      0.449647D-01
   xxx       -0.831623D+01     -0.718458D-01     -0.266648D-01
   xxy       -0.303124D+02     -0.261875D+00     -0.971924D-01
   yxy        0.417287D+01      0.360504D-01      0.133797D-01
   yyy        0.223163D+02      0.192796D+00      0.715543D-01
   xxz        0.238581D+02      0.206116D+00      0.764978D-01
   yxz        0.145913D+02      0.126057D+00      0.467849D-01
   yyz       -0.110473D+02     -0.954398D-01     -0.354215D-01
   zxz       -0.141734D+02     -0.122447D+00     -0.454449D-01
   zyz       -0.445253D-01     -0.384664D-03     -0.142764D-03
   zzz       -0.722502D+00     -0.624185D-02     -0.231660D-02

 ----------------------------------------------------------------------

 Dipole orientation:
     6         -1.58397910         -2.82647423         -3.31303651
     6         -1.02363968         -1.64535455         -1.13932459
     6         -2.00852417         -2.55812672          1.36090696
     6         -2.71921387         -5.38138222          1.36090581
     6         -3.70409828         -6.29415252         -1.13932622
     6         -3.14376046         -5.11303058         -3.31303728
     1         -0.91443781         -2.15450985         -5.13540820
     1         -0.60719368         -2.19362998          2.87151186
     1         -1.03073327         -6.53204347          1.85205528
     1         -4.84745496         -7.99920760         -1.07637727
     1         -3.81330240         -5.78499343         -5.13540938
     1         -4.12054423         -5.74588008          2.87150995
     1         -3.69700538         -1.40746572          1.85205722
     1          0.11971779          0.05970062         -1.07637456

 Electric dipole moment (dipole orientation):
 (Debye = 10**-18 statcoulomb cm , SI units = C m)
                  (au)            (Debye)         (10**-30 SI)
   Tot        0.295166D+00      0.750236D+00      0.250252D+01
   x          0.000000D+00      0.000000D+00      0.000000D+00
   y          0.000000D+00      0.000000D+00      0.000000D+00
   z          0.295166D+00      0.750236D+00      0.250252D+01

 Dipole polarizability, Alpha (dipole orientation).
 (esu units = cm**3 , SI units = C**2 m**2 J**-1)
 Alpha(0;0):
               (au)            (10**-24 esu)      (10**-40 SI)
   iso        0.452639D+02      0.670742D+01      0.746301D+01
   aniso      0.374363D+02      0.554748D+01      0.617241D+01
   xx         0.285204D+02      0.422629D+01      0.470238D+01
   yx         0.153246D+02      0.227087D+01      0.252668D+01
   yy         0.489392D+02      0.725205D+01      0.806899D+01
   zx         0.150948D-04      0.223682D-05      0.248879D-05
   zy         0.000000D+00      0.000000D+00      0.000000D+00
   zz         0.583321D+02      0.864393D+01      0.961767D+01

 First dipole hyperpolarizability, Beta (dipole orientation).
 ||, _|_  parallel and perpendicular components, (z) with respect to z axis,
 vector components x,y,z.  Values do not include the 1/n! factor of 1/2.
 (esu units = statvolt**-1 cm**4 , SI units = C**3 m**3 J**-2)
 Beta(0;0,0):
               (au)            (10**-30 esu)      (10**-50 SI)
   || (z)    -0.140236D+02     -0.121153D+00     -0.449647D-01
   _|_(z)    -0.467453D+01     -0.403843D-01     -0.149882D-01
   x         -0.314586D-03     -0.271778D-05     -0.100868D-05
   y         -0.423604D-03     -0.365961D-05     -0.135823D-05
   z         -0.701180D+02     -0.605765D+00     -0.224824D+00
   ||         0.140236D+02      0.121153D+00      0.449647D-01
   xxx       -0.409533D-04     -0.353804D-06     -0.131311D-06
   xxy       -0.326243D-04     -0.281848D-06     -0.104605D-06
   yxy       -0.777675D-04     -0.671851D-06     -0.249351D-06
   yyy       -0.165927D-03     -0.143348D-05     -0.532022D-06
   xxz        0.166989D+02      0.144265D+00      0.535427D-01
   yxz        0.127647D+02      0.110277D+00      0.409283D-01
   yyz        0.228143D+02      0.197098D+00      0.731510D-01
   zxz        0.138589D-04      0.119730D-06      0.444367D-07
   zyz        0.573499D-04      0.495458D-06      0.183884D-06
   zzz       -0.628859D+02     -0.543285D+00     -0.201635D+00

 ----------------------------------------------------------------------
 Unable to Open any file for archive entry.
 1|1|UNPC-SKCH-134-020|Freq|RPM6|ZDO|C6H8|AL6323|13-Nov-2025|0||#N Geom
 =AllCheck Guess=TCheck SCRF=Check GenChk RPM6/ZDO Freq||Title Card Req
 uired||0,1|C,-2.1386192162,0.9248465832,0.7644234037|C,-0.9496169276,0
 .6916098271,0.1868500612|C,-0.3088008605,1.6847236296,-0.7397112084|C,
 -0.798126715,3.1290134696,-0.5204688392|C,-2.2310239876,3.2118018223,-
 0.078442585|C,-2.8449168044,2.1871243339,0.5338387158|H,-2.6202917123,
 0.2022781884,1.4185241331|H,0.7933065337,1.6501178044,-0.6383701631|H,
 -0.1708224855,3.6210594272,0.2548030889|H,-2.7253741511,4.1626682993,-
 0.2594241903|H,-3.8747351364,2.2461736242,0.8772753452|H,-0.6473259253
 ,3.7136249776,-1.4486909471|H,-0.5287414293,1.3715035804,-1.7838311098
 |H,-0.4030556626,-0.2363371071,0.3333744049||Version=EM64W-G16RevC.01|
 HF=0.031046|RMSD=1.074e-009|RMSF=5.979e-008|ZeroPoint=0.1144613|Therma
 l=0.11984|ETot=0.1508859|HTot=0.1518301|GTot=0.116875|Dipole=0.2313147
 ,0.1015432,-0.1526607|DipoleDeriv=-0.2748599,-0.049404,0.0868945,-0.08
 73935,-0.0716312,0.010511,0.0837371,-0.034328,-0.2329654,-0.0669643,0.
 1125859,-0.1051586,0.1804778,-0.2655207,-0.099715,-0.1483887,0.003998,
 -0.0108036,-0.3567741,0.0007021,0.0182318,0.0144535,-0.1548095,-0.0074
 963,0.0813214,-0.0577367,-0.3650042,-0.2915094,-0.1527297,-0.011502,-0
 .0959443,-0.2832093,0.0712179,-0.0276814,0.014596,-0.3018716,0.0370524
 ,0.2257826,-0.0889589,0.0947588,-0.2735064,-0.0058949,-0.0877211,-0.01
 39474,-0.1068366,-0.2262504,-0.1552783,0.0522743,-0.1023868,-0.1340553
 ,0.0192909,0.0653434,0.0415505,-0.2191486,0.1379654,0.0467029,-0.01572
 55,0.1014828,0.1495064,-0.0520052,-0.0460958,-0.0235298,0.1969012,0.18
 61882,-0.0079093,-0.0012535,0.0015907,0.0901971,0.0061918,-0.0042082,0
 .018683,0.1444509,0.1223536,0.0226328,0.0166054,0.0414769,0.1481162,-0
 .0070323,0.0402694,0.0335383,0.1537906,0.0958673,-0.0811811,0.0457783,
 -0.041739,0.2459671,-0.0146238,0.0292673,0.0007495,0.1280328,0.2427525
 ,0.050464,-0.0505217,-0.0089004,0.082502,0.0359283,-0.0232012,0.014396
 ,0.1591151,0.1202173,0.0416217,0.0038326,0.0260181,0.1353794,-0.026809
 6,0.0027319,-0.0300563,0.1652392,0.1362632,0.0097141,0.023091,-0.02349
 36,0.1112458,0.0427262,-0.010156,0.0239488,0.1767356,0.137689,-0.06373
 03,0.0264197,-0.1004081,0.2198136,0.0277145,0.0447674,0.0081528,0.1123
 642|Polar=50.7156931,-4.2017214,54.4275395,-14.3354085,-8.9637056,30.6
 485259|HyperPolar=-8.3162302,-30.3123554,4.1728712,22.3163461,23.85814
 89,14.5912731,-11.0472649,-14.1733546,-0.0445253,-0.7225018|PG=C01 [X(
 C6H8)]|NImag=0||0.70434431,-0.13402767,0.48481858,-0.26275346,-0.09745
 386,0.33504249,-0.46067446,0.06800383,0.20205989,0.70791356,0.08672397
 ,-0.08033757,-0.03956286,-0.11719441,0.44509268,0.19338520,-0.02985718
 ,-0.15554618,-0.27471368,-0.08478325,0.35889943,-0.02504007,-0.0170451
 1,0.02896843,-0.08932304,-0.05184623,0.04508991,0.44673137,-0.01192167
 ,0.00369472,0.00840591,-0.04838192,-0.13783485,0.07166091,0.00756843,0
 .47921835,0.02744282,0.01191180,-0.01608794,0.03988599,0.06998338,-0.1
 2348482,-0.03463612,-0.02488673,0.42320155,-0.00165123,-0.00113357,-0.
 00023263,0.00625803,-0.00652641,-0.00120751,-0.06954346,0.03685083,0.0
 0708030,0.47715362,-0.00267417,-0.00208440,0.00018753,0.00054921,-0.03
 593242,0.00937846,0.03870452,-0.17366070,-0.02054714,-0.01194750,0.456
 22185,0.00001227,0.00038459,-0.00374023,-0.00238324,0.01730972,0.00237
 587,0.00681577,-0.01943982,-0.06031651,-0.03904972,-0.00512985,0.41577
 607,0.01509382,-0.00118768,-0.00303869,-0.00327988,0.00438103,-0.00048
 220,-0.02029597,0.01745442,0.00726505,-0.21585352,0.01143198,0.0515459
 5,0.54909634,0.00585297,-0.05587540,0.02090899,-0.00083099,-0.00499355
 ,0.00253964,0.02759255,-0.00841651,-0.00866540,0.01353505,-0.05849301,
 -0.00470611,0.10004222,0.66642450,-0.00695829,0.02496784,-0.00021091,0
 .00285131,0.00056320,-0.00045568,0.00812645,-0.00537430,0.00141423,0.0
 4543572,-0.00432093,-0.07629624,-0.17494506,-0.23036716,0.29638513,-0.
 11124881,0.09902919,-0.02454543,-0.03322538,0.03346919,0.00640545,-0.0
 0382800,-0.00014496,-0.00018813,-0.03368964,-0.02409819,0.02184063,-0.
 17337833,-0.18663956,0.11359347,0.54728902,0.06973815,-0.21249088,0.03
 476908,0.04142825,-0.01573333,-0.01128988,-0.00078890,-0.00040327,-0.0
 0056148,-0.01833074,-0.00054812,0.00779515,-0.16697976,-0.35885720,0.1
 7343135,0.06280126,0.68789289,-0.01106142,0.02135711,-0.07076608,0.003
 09666,-0.00862235,0.00796613,0.00065334,-0.00172328,-0.00324469,0.0207
 4379,0.01032586,-0.00319571,0.10554371,0.18171347,-0.16432270,-0.17606
 316,-0.23480047,0.28902361,-0.07226859,-0.05590780,0.04657891,-0.02396
 759,-0.01604658,0.02542315,-0.00015627,0.00217094,0.00369055,0.0001166
 7,0.00018700,-0.00029824,-0.00076767,0.00167555,0.00013164,0.00628217,
 0.00843271,-0.00411474,0.09171390,-0.05632928,-0.11673422,0.07241660,-
 0.00480646,0.00368092,0.00364516,0.00242445,0.00141743,0.00182491,0.00
 015993,0.00028177,-0.00009921,0.00171030,-0.00165919,0.00036607,-0.001
 93604,-0.03056812,0.02025105,0.05933227,0.14401007,0.04616924,0.072565
 32,-0.10545237,0.01956897,0.01019541,-0.01167025,0.00407800,0.00235600
 ,0.00496593,0.00002926,-0.00007717,-0.00019137,0.00001044,0.00056284,0
 .00046675,0.00163756,0.01316294,-0.00079111,-0.07067882,-0.09736570,0.
 11415431,-0.00002964,-0.00062959,0.00033247,-0.02484990,-0.01185039,0.
 00910927,-0.20891886,0.00510386,-0.01738864,-0.01816209,0.01504968,0.0
 0047931,-0.00009944,0.00076034,0.00004677,0.00009705,-0.00006229,-0.00
 019281,0.00003814,0.00008431,0.00046266,0.26244173,-0.00079265,-0.0012
 8194,0.00138463,-0.02040007,-0.00268873,0.00356488,0.00399258,-0.03405
 124,0.00052956,0.02796403,-0.01214594,0.00012811,0.00078703,-0.0027325
 1,-0.00029272,-0.00017895,-0.00007822,-0.00024144,0.00003038,0.0003355
 5,0.00056203,-0.00698211,0.05055076,0.00019765,0.00140756,-0.00106786,
 0.02035989,0.00649795,-0.00057927,-0.01955549,0.00084323,-0.03393801,0
 .00394361,-0.00203761,0.00328559,0.00025215,-0.00047978,-0.00006005,0.
 00013296,-0.00003407,0.00024341,0.00001400,-0.00027766,-0.00062351,0.0
 1580595,-0.00328435,0.03906436,-0.00014461,-0.00013087,-0.00063971,-0.
 00028514,0.00001382,0.00013904,0.00474553,0.00055341,0.00150940,-0.088
 60978,-0.04458655,-0.07151329,-0.03662280,-0.01204155,-0.01451411,-0.0
 0117025,0.00019521,0.00036571,-0.00002868,-0.00000375,0.00002652,0.000
 52688,0.00087681,0.00057751,0.11931746,0.00044066,-0.00027950,0.000134
 96,-0.00017521,-0.00033807,0.00020774,-0.00834459,-0.02666081,-0.02256
 902,-0.04091405,-0.06581088,-0.05229585,-0.00891448,0.00229492,-0.0006
 2482,0.00009058,0.00064721,-0.00031372,-0.00002503,-0.00005416,0.00002
 156,0.00010913,0.00001044,-0.00057927,0.05331380,0.08765067,0.00028443
 ,-0.00021524,0.00009288,-0.00029753,-0.00007417,-0.00012955,-0.0018041
 2,-0.01289652,-0.00409273,-0.06843488,-0.05352843,-0.11903412,-0.00474
 524,0.00009867,0.00616447,0.00099764,0.00050163,-0.00076295,0.00003255
 ,0.00000578,0.00007533,0.00034583,-0.00035791,0.00037863,0.08585818,0.
 07092806,0.14084208,0.00047199,-0.00021504,0.00296851,-0.00014168,-0.0
 0046347,0.00020772,-0.00254933,0.00007472,0.00064179,-0.02520101,0.023
 90845,0.00235034,-0.07277725,0.07382642,-0.01659663,0.00710551,-0.0079
 8198,0.00273516,0.00018742,-0.00029943,-0.00007255,-0.00015307,0.00051
 262,0.00011631,-0.00082318,0.00011870,0.00008187,0.09413375,-0.0002480
 0,-0.00084982,0.00384786,-0.00036632,0.00055440,-0.00015275,-0.0001136
 2,0.00045837,0.00024737,0.01262038,-0.00423639,-0.00007012,0.07226385,
 -0.17703994,0.02508213,0.00516685,-0.03669670,0.01439626,0.00017281,-0
 .00047547,0.00001504,0.00006597,0.00007740,-0.00001541,0.00042336,0.00
 012626,0.00005845,-0.08892887,0.21850954,0.00334305,0.00328262,0.00630
 802,-0.00040515,-0.00003456,0.00005097,0.00088032,0.00040019,0.0001734
 6,0.00707752,-0.00348861,0.00553366,-0.01681656,0.02414776,-0.04448833
 ,-0.00191287,0.01990781,-0.00031204,-0.00017887,-0.00014094,-0.0002842
 8,-0.00003167,0.00007421,0.00004331,0.00033113,-0.00018082,-0.00011151
 ,0.00805965,-0.04248602,0.03557764,-0.02242666,0.01497158,0.00479862,-
 0.00023138,0.00119095,-0.00018393,0.00013174,-0.00016005,-0.00017929,0
 .00096737,0.00018185,0.00290262,-0.02479159,-0.01144319,0.01492193,-0.
 20135500,0.00913472,0.05335956,0.00030215,0.00023501,-0.00014709,-0.00
 005186,-0.00000095,0.00000443,0.00035817,-0.00011811,-0.00021134,0.000
 27855,-0.00097192,-0.00065007,0.24755066,0.02758583,-0.00920564,-0.003
 63691,0.00097218,-0.00229927,0.00087013,-0.00004900,0.00003480,0.00009
 520,-0.00022897,-0.00083709,0.00355588,-0.02406270,-0.00259265,0.01150
 523,0.00906400,-0.03459952,-0.00516295,0.00078093,-0.00032249,-0.00003
 865,0.00000536,0.00000847,0.00000736,0.00038426,0.00002057,-0.00002864
 ,-0.00099224,-0.00047371,-0.00049299,-0.01306704,0.05041543,0.00053987
 ,0.00004823,0.00655554,-0.00018511,0.00095229,0.00057044,-0.00045105,-
 0.00005439,0.00004050,0.00241069,0.00326279,0.00609636,0.01985921,0.00
 704596,-0.00457277,0.05344001,-0.00456710,-0.05850009,-0.00046674,0.00
 018113,0.00031020,0.00000086,0.00007850,0.00002577,0.00121227,-0.00004
 479,-0.00032767,-0.00064005,-0.00048576,-0.00216114,-0.07494707,-0.006
 30999,0.05191216,0.00024405,0.00005603,0.00033061,-0.00036621,0.000836
 50,0.00021006,0.00299212,0.00617067,-0.00459479,-0.03573424,-0.0108418
 7,0.01935149,-0.01627986,-0.01228826,0.02816909,-0.00256958,0.00058687
 ,0.00039999,-0.00002126,-0.00001614,0.00000297,-0.00011885,0.00051707,
 -0.00011405,0.00270032,0.00346568,-0.01216483,-0.00039846,-0.00006863,
 0.00056401,-0.00050855,-0.00064247,-0.00058748,0.04934829,0.00005798,0
 .00004943,-0.00012544,0.00104899,-0.00253246,-0.00047121,0.00315393,-0
 .03101167,0.02040305,-0.01135069,-0.08115994,0.07695849,-0.00668629,0.
 00148754,0.00536426,0.00059616,0.00035111,-0.00023843,0.00004583,0.000
 01369,0.00005744,0.00055721,-0.00086400,0.00009820,0.00012883,0.005369
 23,-0.00389058,0.00049725,0.00049486,-0.00039986,-0.00009645,0.0000661
 3,0.00002611,0.01236222,0.10859851,-0.00007128,-0.00015928,-0.00