 Default is to use a total of   8 processors:
                                8 via shared-memory
                                1 via Linda
 Entering Link 1 = C:\G16W\l1.exe PID=      7344.
  
 Copyright (c) 1988-2019, Gaussian, Inc.  All Rights Reserved.
  
 This is part of the Gaussian(R) 16 program.  It is based on
 the Gaussian(R) 09 system (copyright 2009, Gaussian, Inc.),
 the Gaussian(R) 03 system (copyright 2003, Gaussian, Inc.),
 the Gaussian(R) 98 system (copyright 1998, Gaussian, Inc.),
 the Gaussian(R) 94 system (copyright 1995, Gaussian, Inc.),
 the Gaussian 92(TM) system (copyright 1992, Gaussian, Inc.),
 the Gaussian 90(TM) system (copyright 1990, Gaussian, Inc.),
 the Gaussian 88(TM) system (copyright 1988, Gaussian, Inc.),
 the Gaussian 86(TM) system (copyright 1986, Carnegie Mellon
 University), and the Gaussian 82(TM) system (copyright 1983,
 Carnegie Mellon University). Gaussian is a federally registered
 trademark of Gaussian, Inc.
  
 This software contains proprietary and confidential information,
 including trade secrets, belonging to Gaussian, Inc.
  
 This software is provided under written license and may be
 used, copied, transmitted, or stored only in accord with that
 written license.
  
 The following legend is applicable only to US Government
 contracts under FAR:
  
                    RESTRICTED RIGHTS LEGEND
  
 Use, reproduction and disclosure by the US Government is
 subject to restrictions as set forth in subparagraphs (a)
 and (c) of the Commercial Computer Software - Restricted
 Rights clause in FAR 52.227-19.
  
 Gaussian, Inc.
 340 Quinnipiac St., Bldg. 40, Wallingford CT 06492
  
  
 ---------------------------------------------------------------
 Warning -- This program may not be used in any manner that
 competes with the business of Gaussian, Inc. or will provide
 assistance to any competitor of Gaussian, Inc.  The licensee
 of this program is prohibited from giving any competitor of
 Gaussian, Inc. access to this program.  By using this program,
 the user acknowledges that Gaussian, Inc. is engaged in the
 business of creating and licensing software in the field of
 computational chemistry and represents and warrants to the
 licensee that it is not a competitor of Gaussian, Inc. and that
 it will not use this program in any manner prohibited above.
 ---------------------------------------------------------------
  

 Cite this work as:
 Gaussian 16, Revision C.01,
 M. J. Frisch, G. W. Trucks, H. B. Schlegel, G. E. Scuseria, 
 M. A. Robb, J. R. Cheeseman, G. Scalmani, V. Barone, 
 G. A. Petersson, H. Nakatsuji, X. Li, M. Caricato, A. V. Marenich, 
 J. Bloino, B. G. Janesko, R. Gomperts, B. Mennucci, H. P. Hratchian, 
 J. V. Ortiz, A. F. Izmaylov, J. L. Sonnenberg, D. Williams-Young, 
 F. Ding, F. Lipparini, F. Egidi, J. Goings, B. Peng, A. Petrone, 
 T. Henderson, D. Ranasinghe, V. G. Zakrzewski, J. Gao, N. Rega, 
 G. Zheng, W. Liang, M. Hada, M. Ehara, K. Toyota, R. Fukuda, 
 J. Hasegawa, M. Ishida, T. Nakajima, Y. Honda, O. Kitao, H. Nakai, 
 T. Vreven, K. Throssell, J. A. Montgomery, Jr., J. E. Peralta, 
 F. Ogliaro, M. J. Bearpark, J. J. Heyd, E. N. Brothers, K. N. Kudin, 
 V. N. Staroverov, T. A. Keith, R. Kobayashi, J. Normand, 
 K. Raghavachari, A. P. Rendell, J. C. Burant, S. S. Iyengar, 
 J. Tomasi, M. Cossi, J. M. Millam, M. Klene, C. Adamo, R. Cammi, 
 J. W. Ochterski, R. L. Martin, K. Morokuma, O. Farkas, 
 J. B. Foresman, and D. J. Fox, Gaussian, Inc., Wallingford CT, 2019.
 
 ******************************************
 Gaussian 16:  EM64W-G16RevC.01 30-May-2019
                15-Nov-2025 
 ******************************************
 %chk=C:\Users\al6323\OneDrive - Imperial College London\Desktop\TSR20251115\Exer
 cise 2\Product_PM6_endo.chk
 Default route: MaxDisk=10GB
 ----------------------------------------------------------------------
 # opt=(calcfc,tight,maxcycles=200,maxstep=4) freq pm6 nosymm geom=conn
 ectivity scf=(xqc,tight)
 ----------------------------------------------------------------------
 1/6=200,7=10,8=4,10=4,18=20,19=15,26=1,38=1,57=2/1,3;
 2/9=110,12=2,15=1,17=6,18=5,40=1/2;
 3/5=2,25=1,41=3900000,71=2,140=1/1,2,3;
 4/35=1/1;
 5/5=2,8=3,13=1,32=2,35=1,38=5/2,8;
 8/6=4,10=90,11=11/1;
 11/6=1,8=1,9=11,15=111,16=1,31=1/1,2,10;
 10/6=1,13=1,31=1/2;
 6/7=2,8=2,9=2,10=2,28=1/1;
 7/10=1,25=1,30=1/1,2,3,16;
 1/6=200,7=10,8=4,10=4,18=20,19=15,26=1/3(2);
 2/9=110,15=1/2;
 99//99;
 2/9=110,15=1/2;
 3/5=2,25=1,41=3900000,71=1,135=20/1,2,3;
 4/5=5,16=3,35=1/1;
 5/5=2,8=3,13=1,32=2,35=1,38=5/2,8;
 7/30=1/1,2,3,16;
 1/6=200,7=10,8=4,18=20,19=15,26=1/3(-5);
 2/9=110,15=1/2;
 6/7=2,8=2,9=2,10=2,19=2,28=1/1;
 99/9=1/99;
 ------------------
 TS(Berny)_PM6_endo
 ------------------
 Symbolic Z-matrix:
 Charge =  0 Multiplicity = 1
 C                    -0.22787   0.44423   0.34693 
 C                     0.57025   1.54433   1.0965 
 C                     0.67836   2.45176  -0.15448 
 C                    -0.36504   1.62631  -0.8735 
 C                    -1.85827   1.60672  -0.51526 
 C                    -1.76248   0.61577   0.42444 
 H                     0.53667   3.49349   0.04458 
 H                    -2.69155   2.16823  -0.88303 
 H                    -2.50374   0.12826   1.02258 
 H                    -0.07277   1.92971   1.85999 
 C                     0.45478  -0.46431  -0.64184 
 C                     0.11381   0.4558   -1.79038 
 O                    -0.98506  -0.15937  -2.45947 
 O                    -0.15414  -1.70191  -0.93105 
 C                    -1.39281  -1.10921  -1.43948 
 H                    -1.89598  -0.59848  -0.6452 
 H                    -2.04719  -1.85239  -1.84489 
 H                     0.87515   0.65023  -2.51664 
 H                     1.48062  -0.57521  -0.35855 
 H                     1.51234   1.32726   1.55502 
 H                     1.59393   2.36255  -0.701 
 

 GradGradGradGradGradGradGradGradGradGradGradGradGradGradGradGradGradGrad
 Berny optimization.
 Initialization pass.
                           ----------------------------
                           !    Initial Parameters    !
                           ! (Angstroms and Degrees)  !
 --------------------------                            --------------------------
 ! Name  Definition              Value          Derivative Info.                !
 --------------------------------------------------------------------------------
 ! R1    R(1,2)                  1.5521         calculate D2E/DX2 analytically  !
 ! R2    R(1,6)                  1.5461         calculate D2E/DX2 analytically  !
 ! R3    R(1,11)                 1.5064         calculate D2E/DX2 analytically  !
 ! R4    R(2,3)                  1.5492         calculate D2E/DX2 analytically  !
 ! R5    R(2,10)                 1.07           calculate D2E/DX2 analytically  !
 ! R6    R(2,20)                 1.07           calculate D2E/DX2 analytically  !
 ! R7    R(3,4)                  1.5123         calculate D2E/DX2 analytically  !
 ! R8    R(3,7)                  1.07           calculate D2E/DX2 analytically  !
 ! R9    R(3,21)                 1.07           calculate D2E/DX2 analytically  !
 ! R10   R(4,5)                  1.5357         calculate D2E/DX2 analytically  !
 ! R11   R(4,12)                 1.5621         calculate D2E/DX2 analytically  !
 ! R12   R(5,6)                  1.369          calculate D2E/DX2 analytically  !
 ! R13   R(5,8)                  1.07           calculate D2E/DX2 analytically  !
 ! R14   R(6,9)                  1.07           calculate D2E/DX2 analytically  !
 ! R15   R(11,12)                1.5106         calculate D2E/DX2 analytically  !
 ! R16   R(11,14)                1.4093         calculate D2E/DX2 analytically  !
 ! R17   R(11,19)                1.07           calculate D2E/DX2 analytically  !
 ! R18   R(12,13)                1.4261         calculate D2E/DX2 analytically  !
 ! R19   R(12,18)                1.07           calculate D2E/DX2 analytically  !
 ! R20   R(13,15)                1.4522         calculate D2E/DX2 analytically  !
 ! R21   R(14,15)                1.4643         calculate D2E/DX2 analytically  !
 ! R22   R(15,16)                1.07           calculate D2E/DX2 analytically  !
 ! R23   R(15,17)                1.07           calculate D2E/DX2 analytically  !
 ! A1    A(2,1,6)              114.0501         calculate D2E/DX2 analytically  !
 ! A2    A(2,1,11)             120.7609         calculate D2E/DX2 analytically  !
 ! A3    A(6,1,11)             123.3415         calculate D2E/DX2 analytically  !
 ! A4    A(1,2,3)               93.5015         calculate D2E/DX2 analytically  !
 ! A5    A(1,2,10)             106.9089         calculate D2E/DX2 analytically  !
 ! A6    A(1,2,20)             121.0575         calculate D2E/DX2 analytically  !
 ! A7    A(3,2,10)             114.0266         calculate D2E/DX2 analytically  !
 ! A8    A(3,2,20)             113.7919         calculate D2E/DX2 analytically  !
 ! A9    A(10,2,20)            107.2421         calculate D2E/DX2 analytically  !
 ! A10   A(2,3,4)               90.9205         calculate D2E/DX2 analytically  !
 ! A11   A(2,3,7)              114.2546         calculate D2E/DX2 analytically  !
 ! A12   A(2,3,21)             115.0443         calculate D2E/DX2 analytically  !
 ! A13   A(4,3,7)              121.9036         calculate D2E/DX2 analytically  !
 ! A14   A(4,3,21)             107.5787         calculate D2E/DX2 analytically  !
 ! A15   A(7,3,21)             106.828          calculate D2E/DX2 analytically  !
 ! A16   A(3,4,5)              124.5347         calculate D2E/DX2 analytically  !
 ! A17   A(3,4,12)             118.4619         calculate D2E/DX2 analytically  !
 ! A18   A(5,4,12)             115.1781         calculate D2E/DX2 analytically  !
 ! A19   A(4,5,6)               95.8151         calculate D2E/DX2 analytically  !
 ! A20   A(4,5,8)              132.0935         calculate D2E/DX2 analytically  !
 ! A21   A(6,5,8)              132.088          calculate D2E/DX2 analytically  !
 ! A22   A(1,6,5)               96.6237         calculate D2E/DX2 analytically  !
 ! A23   A(1,6,9)              131.6886         calculate D2E/DX2 analytically  !
 ! A24   A(5,6,9)              131.6849         calculate D2E/DX2 analytically  !
 ! A25   A(1,11,12)             91.6854         calculate D2E/DX2 analytically  !
 ! A26   A(1,11,14)            117.9408         calculate D2E/DX2 analytically  !
 ! A27   A(1,11,19)            108.8566         calculate D2E/DX2 analytically  !
 ! A28   A(12,11,14)           106.3403         calculate D2E/DX2 analytically  !
 ! A29   A(12,11,19)           118.7388         calculate D2E/DX2 analytically  !
 ! A30   A(14,11,19)           112.1824         calculate D2E/DX2 analytically  !
 ! A31   A(4,12,11)             94.5503         calculate D2E/DX2 analytically  !
 ! A32   A(4,12,13)            111.2494         calculate D2E/DX2 analytically  !
 ! A33   A(4,12,18)            118.7095         calculate D2E/DX2 analytically  !
 ! A34   A(11,12,13)           105.5391         calculate D2E/DX2 analytically  !
 ! A35   A(11,12,18)           117.7836         calculate D2E/DX2 analytically  !
 ! A36   A(13,12,18)           107.951          calculate D2E/DX2 analytically  !
 ! A37   A(12,13,15)            99.7281         calculate D2E/DX2 analytically  !
 ! A38   A(11,14,15)            94.663          calculate D2E/DX2 analytically  !
 ! A39   A(13,15,14)           105.7304         calculate D2E/DX2 analytically  !
 ! A40   A(13,15,16)           109.9521         calculate D2E/DX2 analytically  !
 ! A41   A(13,15,17)           111.0935         calculate D2E/DX2 analytically  !
 ! A42   A(14,15,16)           109.4666         calculate D2E/DX2 analytically  !
 ! A43   A(14,15,17)           111.5778         calculate D2E/DX2 analytically  !
 ! A44   A(16,15,17)           108.9769         calculate D2E/DX2 analytically  !
 ! D1    D(6,1,2,3)            -91.2492         calculate D2E/DX2 analytically  !
 ! D2    D(6,1,2,10)            25.1713         calculate D2E/DX2 analytically  !
 ! D3    D(6,1,2,20)           148.1767         calculate D2E/DX2 analytically  !
 ! D4    D(11,1,2,3)            73.7768         calculate D2E/DX2 analytically  !
 ! D5    D(11,1,2,10)         -169.8027         calculate D2E/DX2 analytically  !
 ! D6    D(11,1,2,20)          -46.7973         calculate D2E/DX2 analytically  !
 ! D7    D(2,1,6,5)             77.7422         calculate D2E/DX2 analytically  !
 ! D8    D(2,1,6,9)           -101.688          calculate D2E/DX2 analytically  !
 ! D9    D(11,1,6,5)           -86.8449         calculate D2E/DX2 analytically  !
 ! D10   D(11,1,6,9)            93.7249         calculate D2E/DX2 analytically  !
 ! D11   D(2,1,11,12)          -92.4343         calculate D2E/DX2 analytically  !
 ! D12   D(2,1,11,14)          158.0413         calculate D2E/DX2 analytically  !
 ! D13   D(2,1,11,19)           28.7877         calculate D2E/DX2 analytically  !
 ! D14   D(6,1,11,12)           71.16           calculate D2E/DX2 analytically  !
 ! D15   D(6,1,11,14)          -38.3644         calculate D2E/DX2 analytically  !
 ! D16   D(6,1,11,19)         -167.618          calculate D2E/DX2 analytically  !
 ! D17   D(1,2,3,4)             13.0484         calculate D2E/DX2 analytically  !
 ! D18   D(1,2,3,7)            138.9909         calculate D2E/DX2 analytically  !
 ! D19   D(1,2,3,21)           -96.8838         calculate D2E/DX2 analytically  !
 ! D20   D(10,2,3,4)           -97.2137         calculate D2E/DX2 analytically  !
 ! D21   D(10,2,3,7)            28.7288         calculate D2E/DX2 analytically  !
 ! D22   D(10,2,3,21)          152.8542         calculate D2E/DX2 analytically  !
 ! D23   D(20,2,3,4)           139.3364         calculate D2E/DX2 analytically  !
 ! D24   D(20,2,3,7)           -94.7211         calculate D2E/DX2 analytically  !
 ! D25   D(20,2,3,21)           29.4042         calculate D2E/DX2 analytically  !
 ! D26   D(2,3,4,5)             70.6586         calculate D2E/DX2 analytically  !
 ! D27   D(2,3,4,12)           -93.1824         calculate D2E/DX2 analytically  !
 ! D28   D(7,3,4,5)            -48.9421         calculate D2E/DX2 analytically  !
 ! D29   D(7,3,4,12)           147.2169         calculate D2E/DX2 analytically  !
 ! D30   D(21,3,4,5)          -172.6489         calculate D2E/DX2 analytically  !
 ! D31   D(21,3,4,12)           23.5101         calculate D2E/DX2 analytically  !
 ! D32   D(3,4,5,6)            -87.4143         calculate D2E/DX2 analytically  !
 ! D33   D(3,4,5,8)             93.2128         calculate D2E/DX2 analytically  !
 ! D34   D(12,4,5,6)            76.9004         calculate D2E/DX2 analytically  !
 ! D35   D(12,4,5,8)          -102.4725         calculate D2E/DX2 analytically  !
 ! D36   D(3,4,12,11)           75.2881         calculate D2E/DX2 analytically  !
 ! D37   D(3,4,12,13)         -176.0917         calculate D2E/DX2 analytically  !
 ! D38   D(3,4,12,18)          -49.9333         calculate D2E/DX2 analytically  !
 ! D39   D(5,4,12,11)          -90.0372         calculate D2E/DX2 analytically  !
 ! D40   D(5,4,12,13)           18.5831         calculate D2E/DX2 analytically  !
 ! D41   D(5,4,12,18)          144.7414         calculate D2E/DX2 analytically  !
 ! D42   D(4,5,6,1)              2.7677         calculate D2E/DX2 analytically  !
 ! D43   D(4,5,6,9)           -177.8021         calculate D2E/DX2 analytically  !
 ! D44   D(8,5,6,1)           -177.8594         calculate D2E/DX2 analytically  !
 ! D45   D(8,5,6,9)              1.5708         calculate D2E/DX2 analytically  !
 ! D46   D(1,11,12,4)           10.8859         calculate D2E/DX2 analytically  !
 ! D47   D(1,11,12,13)        -102.6609         calculate D2E/DX2 analytically  !
 ! D48   D(1,11,12,18)         136.8029         calculate D2E/DX2 analytically  !
 ! D49   D(14,11,12,4)         130.6956         calculate D2E/DX2 analytically  !
 ! D50   D(14,11,12,13)         17.1488         calculate D2E/DX2 analytically  !
 ! D51   D(14,11,12,18)       -103.3875         calculate D2E/DX2 analytically  !
 ! D52   D(19,11,12,4)        -101.7516         calculate D2E/DX2 analytically  !
 ! D53   D(19,11,12,13)        144.7017         calculate D2E/DX2 analytically  !
 ! D54   D(19,11,12,18)         24.1654         calculate D2E/DX2 analytically  !
 ! D55   D(1,11,14,15)          60.1945         calculate D2E/DX2 analytically  !
 ! D56   D(12,11,14,15)        -40.7696         calculate D2E/DX2 analytically  !
 ! D57   D(19,11,14,15)       -172.1188         calculate D2E/DX2 analytically  !
 ! D58   D(4,12,13,15)         -85.6629         calculate D2E/DX2 analytically  !
 ! D59   D(11,12,13,15)         15.6682         calculate D2E/DX2 analytically  !
 ! D60   D(18,12,13,15)        142.4422         calculate D2E/DX2 analytically  !
 ! D61   D(12,13,15,14)        -43.694          calculate D2E/DX2 analytically  !
 ! D62   D(12,13,15,16)         74.378          calculate D2E/DX2 analytically  !
 ! D63   D(12,13,15,17)       -164.903          calculate D2E/DX2 analytically  !
 ! D64   D(11,14,15,13)         53.2794         calculate D2E/DX2 analytically  !
 ! D65   D(11,14,15,16)        -65.1165         calculate D2E/DX2 analytically  !
 ! D66   D(11,14,15,17)        174.1742         calculate D2E/DX2 analytically  !
 --------------------------------------------------------------------------------
 Trust Radius=4.00D-02 FncErr=1.00D-07 GrdErr=1.00D-07 EigMax=2.50D+02 EigMin=1.00D-04
 Number of steps in this run=    126 maximum allowed number of steps=    126.
 GradGradGradGradGradGradGradGradGradGradGradGradGradGradGradGradGradGrad

                          Input orientation:                          
 ---------------------------------------------------------------------
 Center     Atomic      Atomic             Coordinates (Angstroms)
 Number     Number       Type             X           Y           Z
 ---------------------------------------------------------------------
      1          6           0       -0.227869    0.444227    0.346934
      2          6           0        0.570246    1.544335    1.096502
      3          6           0        0.678361    2.451762   -0.154481
      4          6           0       -0.365040    1.626309   -0.873502
      5          6           0       -1.858270    1.606721   -0.515262
      6          6           0       -1.762481    0.615768    0.424442
      7          1           0        0.536669    3.493490    0.044580
      8          1           0       -2.691545    2.168235   -0.883031
      9          1           0       -2.503737    0.128256    1.022582
     10          1           0       -0.072772    1.929708    1.859991
     11          6           0        0.454776   -0.464311   -0.641838
     12          6           0        0.113813    0.455805   -1.790377
     13          8           0       -0.985055   -0.159373   -2.459465
     14          8           0       -0.154139   -1.701911   -0.931047
     15          6           0       -1.392810   -1.109209   -1.439478
     16          1           0       -1.895984   -0.598485   -0.645201
     17          1           0       -2.047192   -1.852392   -1.844894
     18          1           0        0.875153    0.650228   -2.516642
     19          1           0        1.480616   -0.575212   -0.358549
     20          1           0        1.512338    1.327261    1.555023
     21          1           0        1.593928    2.362554   -0.700997
 ---------------------------------------------------------------------
                    Distance matrix (angstroms):
                    1          2          3          4          5
     1  C    0.000000
     2  C    1.552120   0.000000
     3  C    2.258953   1.549216   0.000000
     4  C    1.704582   2.182291   1.512299   0.000000
     5  C    2.180133   2.915367   2.697916   1.535726   0.000000
     6  C    1.546114   2.599138   3.108655   2.158401   1.369017
     7  H    3.158155   2.215147   1.070000   2.267668   3.099847
     8  H    3.248802   3.866146   3.459399   2.388808   1.070000
     9  H    2.394976   3.385279   4.112165   3.226968   2.228778
    10  H    2.126041   1.070000   2.212428   2.765765   2.989005
    11  C    1.506358   2.658912   2.964960   2.257534   3.107310
    12  C    2.164481   3.118861   2.641726   1.562063   2.615270
    13  O    2.968761   4.238689   3.859784   2.467460   2.767944
    14  O    2.498916   3.895356   4.306868   3.335392   3.744861
    15  C    2.638469   4.162461   4.315261   2.976525   2.906390
    16  H    2.203222   3.702363   4.021451   2.710280   2.209353
    17  H    3.659031   5.200053   5.367670   3.984295   3.710671
    18  H    3.075575   3.734596   2.977257   2.278316   3.520227
    19  H    2.110896   2.727348   3.138125   2.918616   3.991685
    20  H    2.295114   1.070000   2.209621   3.084106   3.965498
    21  H    2.845537   2.224502   1.070000   2.099850   3.538848
                    6          7          8          9         10
     6  C    0.000000
     7  H    3.702928   0.000000
     8  H    2.232218   3.610836   0.000000
     9  H    1.070000   4.639543   2.797882   0.000000
    10  H    2.577277   2.472358   3.799873   3.139438   0.000000
    11  C    2.686959   4.017719   4.109478   3.445900   3.502682
    12  C    2.907144   3.573990   3.409653   3.856371   3.941115
    13  O    3.085799   4.682873   3.288618   3.809695   4.884078
    14  O    3.129817   5.331159   4.628041   3.561853   4.580957
    15  C    2.566398   5.206742   3.569031   2.971064   4.675897
    16  H    1.623690   4.810183   2.888636   1.918076   3.998981
    17  H    3.364931   6.230964   4.183995   3.514801   5.650557
    18  H    3.950731   3.841688   4.206468   4.920921   4.657311
    19  H    3.542483   4.196175   5.020808   4.275215   3.689113
    20  H    3.536789   2.815301   4.931935   4.224922   1.722939
    21  H    3.947576   1.718341   4.293737   4.975306   3.086082
                   11         12         13         14         15
    11  C    0.000000
    12  C    1.510633   0.000000
    13  O    2.338776   1.426056   0.000000
    14  O    1.409281   2.337944   2.325061   0.000000
    15  C    2.113219   2.200525   1.452180   1.464276   0.000000
    16  H    2.354588   2.542094   2.077057   2.081654   1.070000
    17  H    3.103862   3.162387   2.090968   2.107466   1.070000
    18  H    2.221217   1.070000   2.029556   3.017633   3.065869
    19  H    1.070000   2.231877   3.265931   2.066308   3.116109
    20  H    3.025618   3.729210   4.956125   4.258354   4.831491
    21  H    3.048333   2.648241   4.012914   4.430410   4.638868
                   16         17         18         19         20
    16  H    0.000000
    17  H    1.741957   0.000000
    18  H    3.569422   3.905695   0.000000
    19  H    3.388826   4.035572   2.554535   0.000000
    20  H    4.490673   5.860025   4.176462   2.698549   0.000000
    21  H    4.577155   5.686126   2.597165   2.959828   2.483569
                   21
    21  H    0.000000
 Symmetry turned off by external request.
 Stoichiometry    C9H10O2
 Framework group  C1[X(C9H10O2)]
 Deg. of freedom    57
 Full point group                 C1      NOp   1
 Rotational constants (GHZ):           2.2129997           1.2295364           1.1699088
 Standard basis: VSTO-6G (5D, 7F)
    54 basis functions,   324 primitive gaussians,    54 cartesian basis functions
    29 alpha electrons       29 beta electrons
       nuclear repulsion energy       373.6774754776 Hartrees.
 Integral buffers will be    131072 words long.
 Regular integral format.
 Two-electron integral symmetry is turned off.
 Do NDO integrals.
 One-electron integrals computed using PRISM.
 NBasis=    54 RedAO= F EigKep=  0.00D+00  NBF=    54
 NBsUse=    54 1.00D-04 EigRej=  0.00D+00 NBFU=    54
 Simple Huckel Guess.
 Keep J ints in memory in canonical form, NReq=867381.
 Overlap will be assumed to be unity.
 Requested convergence on RMS density matrix=1.00D-08 within  32 cycles.
 Requested convergence on MAX density matrix=1.00D-06.
 Requested convergence on             energy=1.00D-06.
 No special actions if energy rises.
 SCF Done:  E(RPM6) =  0.961855274420E-01 A.U. after   16 cycles
            NFock= 15  Conv=0.65D-08     -V/T= 1.0009
 QCSCF skips out because SCF is already converged.
 Range of M.O.s used for correlation:     1    54
 NBasis=    54 NAE=    29 NBE=    29 NFC=     0 NFV=     0
 NROrb=     54 NOA=    29 NOB=    29 NVA=    25 NVB=    25
 Symmetrizing basis deriv contribution to polar:
 IMax=3 JMax=2 DiffMx= 0.00D+00
 G2DrvN: will do    22 centers at a time, making    1 passes.
 Calling FoFCou, ICntrl=  3107 FMM=F I1Cent=   0 AccDes= 0.00D+00.
 End of G2Drv F.D. properties file   721 does not exist.
 End of G2Drv F.D. properties file   722 does not exist.
 End of G2Drv F.D. properties file   788 does not exist.
          IDoAtm=111111111111111111111
          Differentiating once with respect to nuclear coordinates.
          Electric field/nuclear overlap derivatives assumed to be zero.
 Keep J ints in memory in canonical form, NReq=869523.
          There are    66 degrees of freedom in the 1st order CPHF.  IDoFFX=5 NUNeed=    66.
 LinEq1:  Iter=  0 NonCon=    63 RMS=1.22D-02 Max=8.01D-02 NDo=    63
 AX will form    66 AO Fock derivatives at one time.
 LinEq1:  Iter=  1 NonCon=    63 RMS=1.64D-03 Max=1.23D-02 NDo=    66
 LinEq1:  Iter=  2 NonCon=    63 RMS=3.06D-04 Max=3.63D-03 NDo=    66
 LinEq1:  Iter=  3 NonCon=    63 RMS=6.69D-05 Max=8.18D-04 NDo=    66
 LinEq1:  Iter=  4 NonCon=    63 RMS=1.58D-05 Max=1.42D-04 NDo=    66
 LinEq1:  Iter=  5 NonCon=    63 RMS=3.92D-06 Max=3.98D-05 NDo=    66
 LinEq1:  Iter=  6 NonCon=    63 RMS=8.31D-07 Max=7.22D-06 NDo=    66
 LinEq1:  Iter=  7 NonCon=    59 RMS=1.39D-07 Max=1.41D-06 NDo=    66
 LinEq1:  Iter=  8 NonCon=    20 RMS=2.66D-08 Max=2.12D-07 NDo=    66
 LinEq1:  Iter=  9 NonCon=     0 RMS=4.21D-09 Max=2.75D-08 NDo=    20
 Linear equations converged to 1.000D-08 1.000D-07 after     9 iterations.
 End of Minotr F.D. properties file   721 does not exist.
 End of Minotr F.D. properties file   722 does not exist.
 End of Minotr F.D. properties file   788 does not exist.

 **********************************************************************

            Population analysis using the SCF Density.

 **********************************************************************

 Alpha  occ. eigenvalues --   -1.24616  -1.14357  -1.07136  -1.02083  -0.97838
 Alpha  occ. eigenvalues --   -0.89705  -0.87339  -0.80096  -0.77723  -0.75456
 Alpha  occ. eigenvalues --   -0.67065  -0.65493  -0.64054  -0.61458  -0.58166
 Alpha  occ. eigenvalues --   -0.56012  -0.55744  -0.53778  -0.52675  -0.50531
 Alpha  occ. eigenvalues --   -0.49582  -0.47984  -0.46360  -0.45448  -0.43169
 Alpha  occ. eigenvalues --   -0.41255  -0.39438  -0.35720  -0.34456
 Alpha virt. eigenvalues --    0.01184   0.04265   0.06871   0.07467   0.10021
 Alpha virt. eigenvalues --    0.10746   0.11159   0.11664   0.11855   0.13030
 Alpha virt. eigenvalues --    0.13315   0.14170   0.15095   0.16866   0.18553
 Alpha virt. eigenvalues --    0.19279   0.19580   0.20001   0.20198   0.20333
 Alpha virt. eigenvalues --    0.20979   0.21250   0.21736   0.22626   0.22887
          Condensed to atoms (all electrons):
               1          2          3          4          5          6
     1  C    4.104933   0.000000   0.000000   0.000000   0.000000   0.000000
     2  C    0.000000   4.249302   0.000000   0.000000   0.000000   0.000000
     3  C    0.000000   0.000000   4.277350   0.000000   0.000000   0.000000
     4  C    0.000000   0.000000   0.000000   4.043947   0.000000   0.000000
     5  C    0.000000   0.000000   0.000000   0.000000   4.128524   0.000000
     6  C    0.000000   0.000000   0.000000   0.000000   0.000000   4.178782
     7  H    0.000000   0.000000   0.000000   0.000000   0.000000   0.000000
     8  H    0.000000   0.000000   0.000000   0.000000   0.000000   0.000000
     9  H    0.000000   0.000000   0.000000   0.000000   0.000000   0.000000
    10  H    0.000000   0.000000   0.000000   0.000000   0.000000   0.000000
    11  C    0.000000   0.000000   0.000000   0.000000   0.000000   0.000000
    12  C    0.000000   0.000000   0.000000   0.000000   0.000000   0.000000
    13  O    0.000000   0.000000   0.000000   0.000000   0.000000   0.000000
    14  O    0.000000   0.000000   0.000000   0.000000   0.000000   0.000000
    15  C    0.000000   0.000000   0.000000   0.000000   0.000000   0.000000
    16  H    0.000000   0.000000   0.000000   0.000000   0.000000   0.000000
    17  H    0.000000   0.000000   0.000000   0.000000   0.000000   0.000000
    18  H    0.000000   0.000000   0.000000   0.000000   0.000000   0.000000
    19  H    0.000000   0.000000   0.000000   0.000000   0.000000   0.000000
    20  H    0.000000   0.000000   0.000000   0.000000   0.000000   0.000000
    21  H    0.000000   0.000000   0.000000   0.000000   0.000000   0.000000
               7          8          9         10         11         12
     1  C    0.000000   0.000000   0.000000   0.000000   0.000000   0.000000
     2  C    0.000000   0.000000   0.000000   0.000000   0.000000   0.000000
     3  C    0.000000   0.000000   0.000000   0.000000   0.000000   0.000000
     4  C    0.000000   0.000000   0.000000   0.000000   0.000000   0.000000
     5  C    0.000000   0.000000   0.000000   0.000000   0.000000   0.000000
     6  C    0.000000   0.000000   0.000000   0.000000   0.000000   0.000000
     7  H    0.848543   0.000000   0.000000   0.000000   0.000000   0.000000
     8  H    0.000000   0.837527   0.000000   0.000000   0.000000   0.000000
     9  H    0.000000   0.000000   0.836902   0.000000   0.000000   0.000000
    10  H    0.000000   0.000000   0.000000   0.850982   0.000000   0.000000
    11  C    0.000000   0.000000   0.000000   0.000000   3.934411   0.000000
    12  C    0.000000   0.000000   0.000000   0.000000   0.000000   3.928984
    13  O    0.000000   0.000000   0.000000   0.000000   0.000000   0.000000
    14  O    0.000000   0.000000   0.000000   0.000000   0.000000   0.000000
    15  C    0.000000   0.000000   0.000000   0.000000   0.000000   0.000000
    16  H    0.000000   0.000000   0.000000   0.000000   0.000000   0.000000
    17  H    0.000000   0.000000   0.000000   0.000000   0.000000   0.000000
    18  H    0.000000   0.000000   0.000000   0.000000   0.000000   0.000000
    19  H    0.000000   0.000000   0.000000   0.000000   0.000000   0.000000
    20  H    0.000000   0.000000   0.000000   0.000000   0.000000   0.000000
    21  H    0.000000   0.000000   0.000000   0.000000   0.000000   0.000000
              13         14         15         16         17         18
     1  C    0.000000   0.000000   0.000000   0.000000   0.000000   0.000000
     2  C    0.000000   0.000000   0.000000   0.000000   0.000000   0.000000
     3  C    0.000000   0.000000   0.000000   0.000000   0.000000   0.000000
     4  C    0.000000   0.000000   0.000000   0.000000   0.000000   0.000000
     5  C    0.000000   0.000000   0.000000   0.000000   0.000000   0.000000
     6  C    0.000000   0.000000   0.000000   0.000000   0.000000   0.000000
     7  H    0.000000   0.000000   0.000000   0.000000   0.000000   0.000000
     8  H    0.000000   0.000000   0.000000   0.000000   0.000000   0.000000
     9  H    0.000000   0.000000   0.000000   0.000000   0.000000   0.000000
    10  H    0.000000   0.000000   0.000000   0.000000   0.000000   0.000000
    11  C    0.000000   0.000000   0.000000   0.000000   0.000000   0.000000
    12  C    0.000000   0.000000   0.000000   0.000000   0.000000   0.000000
    13  O    6.408308   0.000000   0.000000   0.000000   0.000000   0.000000
    14  O    0.000000   6.384124   0.000000   0.000000   0.000000   0.000000
    15  C    0.000000   0.000000   3.868678   0.000000   0.000000   0.000000
    16  H    0.000000   0.000000   0.000000   0.848092   0.000000   0.000000
    17  H    0.000000   0.000000   0.000000   0.000000   0.860997   0.000000
    18  H    0.000000   0.000000   0.000000   0.000000   0.000000   0.852348
    19  H    0.000000   0.000000   0.000000   0.000000   0.000000   0.000000
    20  H    0.000000   0.000000   0.000000   0.000000   0.000000   0.000000
    21  H    0.000000   0.000000   0.000000   0.000000   0.000000   0.000000
              19         20         21
     1  C    0.000000   0.000000   0.000000
     2  C    0.000000   0.000000   0.000000
     3  C    0.000000   0.000000   0.000000
     4  C    0.000000   0.000000   0.000000
     5  C    0.000000   0.000000   0.000000
     6  C    0.000000   0.000000   0.000000
     7  H    0.000000   0.000000   0.000000
     8  H    0.000000   0.000000   0.000000
     9  H    0.000000   0.000000   0.000000
    10  H    0.000000   0.000000   0.000000
    11  C    0.000000   0.000000   0.000000
    12  C    0.000000   0.000000   0.000000
    13  O    0.000000   0.000000   0.000000
    14  O    0.000000   0.000000   0.000000
    15  C    0.000000   0.000000   0.000000
    16  H    0.000000   0.000000   0.000000
    17  H    0.000000   0.000000   0.000000
    18  H    0.000000   0.000000   0.000000
    19  H    0.842752   0.000000   0.000000
    20  H    0.000000   0.858689   0.000000
    21  H    0.000000   0.000000   0.855825
 Mulliken charges:
               1
     1  C   -0.104933
     2  C   -0.249302
     3  C   -0.277350
     4  C   -0.043947
     5  C   -0.128524
     6  C   -0.178782
     7  H    0.151457
     8  H    0.162473
     9  H    0.163098
    10  H    0.149018
    11  C    0.065589
    12  C    0.071016
    13  O   -0.408308
    14  O   -0.384124
    15  C    0.131322
    16  H    0.151908
    17  H    0.139003
    18  H    0.147652
    19  H    0.157248
    20  H    0.141311
    21  H    0.144175
 Sum of Mulliken charges =   0.00000
 Mulliken charges with hydrogens summed into heavy atoms:
               1
     1  C   -0.104933
     2  C    0.041028
     3  C    0.018282
     4  C   -0.043947
     5  C    0.033949
     6  C   -0.015684
    11  C    0.222837
    12  C    0.218668
    13  O   -0.408308
    14  O   -0.384124
    15  C    0.422232
 APT charges:
               1
     1  C   -0.104933
     2  C   -0.249302
     3  C   -0.277350
     4  C   -0.043947
     5  C   -0.128524
     6  C   -0.178782
     7  H    0.151457
     8  H    0.162473
     9  H    0.163098
    10  H    0.149018
    11  C    0.065589
    12  C    0.071016
    13  O   -0.408308
    14  O   -0.384124
    15  C    0.131322
    16  H    0.151908
    17  H    0.139003
    18  H    0.147652
    19  H    0.157248
    20  H    0.141311
    21  H    0.144175
 Sum of APT charges =   0.00000
 APT charges with hydrogens summed into heavy atoms:
               1
     1  C   -0.104933
     2  C    0.041028
     3  C    0.018282
     4  C   -0.043947
     5  C    0.033949
     6  C   -0.015684
    11  C    0.222837
    12  C    0.218668
    13  O   -0.408308
    14  O   -0.384124
    15  C    0.422232
 Charge=              0.0000 electrons
 Dipole moment (field-independent basis, Debye):
    X=              0.0744    Y=              1.8932    Z=              1.8154  Tot=              2.6240
 N-N= 3.736774754776D+02 E-N=-6.005122044488D+02  KE=-1.081556352112D+02
  Exact polarizability:       0.000       0.000       0.000       0.000       0.000       0.000
 Approx polarizability:      47.771       1.495      60.917       4.078     -12.671      51.389
 Calling FoFJK, ICntrl=    100127 FMM=F ISym2X=0 I1Cent= 0 IOpClX= 0 NMat=1 NMatS=1 NMatT=0.
 -------------------------------------------------------------------
 Center     Atomic                   Forces (Hartrees/Bohr)
 Number     Number              X              Y              Z
 -------------------------------------------------------------------
      1        6          -0.023894527    0.056096864    0.015968309
      2        6           0.002192575   -0.014489077   -0.003568307
      3        6          -0.009911561   -0.001779705   -0.000315421
      4        6          -0.025507337   -0.030629872    0.013158896
      5        6           0.014434864    0.003316125    0.011231780
      6        6           0.011968175    0.036121866    0.014321470
      7        1          -0.008726984    0.011968942   -0.001031269
      8        1           0.006777379    0.000691781   -0.002097254
      9        1           0.005841765    0.000424834    0.004296495
     10        1          -0.006514000    0.011544612    0.014774368
     11        6           0.038417179   -0.016997572    0.038247835
     12        6           0.004620354    0.048884844   -0.039530667
     13        8          -0.003943048   -0.013215575    0.005373570
     14        8          -0.023443721    0.006168497   -0.003891160
     15        6          -0.015742199   -0.052185214   -0.038322018
     16        1          -0.024520356   -0.020198700   -0.001927714
     17        1           0.001200017   -0.011157145   -0.012314886
     18        1           0.007598301    0.006756377   -0.012250237
     19        1           0.019042966   -0.013156963   -0.001788596
     20        1           0.009699862   -0.010141066    0.003109763
     21        1           0.020410295    0.001976147   -0.003444956
 -------------------------------------------------------------------
 Cartesian Forces:  Max     0.056096864 RMS     0.019503893
 FormGI is forming the generalized inverse of G from B-inverse, IUseBI=4.

 GradGradGradGradGradGradGradGradGradGradGradGradGradGradGradGradGradGrad
 Berny optimization.
 Internal  Forces:  Max     0.066302860 RMS     0.021177955
 Search for a local minimum.
 Step number   1 out of a maximum of  126
 All quantities printed in internal units (Hartrees-Bohrs-Radians)
 Mixed Optimization -- RFO/linear search
 Second derivative matrix not updated -- analytic derivatives used.
 ITU=  0
     Eigenvalues ---    0.00432   0.00697   0.00918   0.01574   0.02348
     Eigenvalues ---    0.02454   0.02770   0.03000   0.03229   0.03368
     Eigenvalues ---    0.03432   0.03571   0.03737   0.03957   0.04059
     Eigenvalues ---    0.04260   0.04798   0.05217   0.05355   0.05762
     Eigenvalues ---    0.06579   0.06737   0.07271   0.08060   0.08144
     Eigenvalues ---    0.08279   0.09412   0.10799   0.11145   0.12416
     Eigenvalues ---    0.16345   0.17760   0.18913   0.19631   0.19977
     Eigenvalues ---    0.23021   0.23596   0.24342   0.26238   0.26293
     Eigenvalues ---    0.27144   0.27223   0.27616   0.27866   0.28002
     Eigenvalues ---    0.28221   0.28492   0.29195   0.30519   0.31688
     Eigenvalues ---    0.32293   0.36092   0.36377   0.41999   0.47985
     Eigenvalues ---    0.59136   1.04095
 RFO step:  Lambda=-7.86584667D-02 EMin= 4.31727066D-03
 Linear search not attempted -- first point.
 Maximum step size (   0.040) exceeded in Quadratic search.
    -- Step size scaled by   0.132
 Iteration  1 RMS(Cart)=  0.01141521 RMS(Int)=  0.00007813
 Iteration  2 RMS(Cart)=  0.00009448 RMS(Int)=  0.00001230
 Iteration  3 RMS(Cart)=  0.00000001 RMS(Int)=  0.00001230
 Variable       Old X    -DE/DX   Delta X   Delta X   Delta X     New X
                                 (Linear)    (Quad)   (Total)
    R1        2.93308  -0.00647   0.00000  -0.00194  -0.00193   2.93115
    R2        2.92173  -0.01300   0.00000  -0.00817  -0.00818   2.91356
    R3        2.84660   0.05598   0.00000   0.00698   0.00698   2.85358
    R4        2.92759   0.00762   0.00000   0.00196   0.00198   2.92957
    R5        2.02201   0.01861   0.00000   0.00658   0.00658   2.02858
    R6        2.02201   0.01193   0.00000   0.00369   0.00369   2.02570
    R7        2.85783   0.01267   0.00000   0.00396   0.00396   2.86179
    R8        2.02201   0.01262   0.00000   0.00405   0.00405   2.02605
    R9        2.02201   0.01906   0.00000   0.00628   0.00628   2.02829
   R10        2.90210  -0.01986   0.00000  -0.00612  -0.00612   2.89598
   R11        2.95187   0.02788   0.00000  -0.00219  -0.00218   2.94969
   R12        2.58707  -0.01245   0.00000  -0.00371  -0.00373   2.58333
   R13        2.02201  -0.00419   0.00000  -0.00113  -0.00113   2.02087
   R14        2.02201  -0.00184   0.00000  -0.00110  -0.00110   2.02090
   R15        2.85468   0.04370   0.00000   0.01203   0.01201   2.86669
   R16        2.66315   0.05736   0.00000   0.00349   0.00349   2.66665
   R17        2.02201   0.01915   0.00000   0.00504   0.00504   2.02704
   R18        2.69485   0.05456   0.00000   0.00415   0.00414   2.69900
   R19        2.02201   0.01495   0.00000   0.00427   0.00427   2.02628
   R20        2.74422   0.01027   0.00000   0.00127   0.00129   2.74551
   R21        2.76708   0.00224   0.00000  -0.00131  -0.00129   2.76579
   R22        2.02201   0.00046   0.00000   0.00774   0.00774   2.02974
   R23        2.02201   0.01168   0.00000   0.00374   0.00374   2.02574
    A1        1.99055  -0.02161   0.00000   0.00270   0.00270   1.99325
    A2        2.10768  -0.02519   0.00000  -0.00363  -0.00365   2.10403
    A3        2.15272   0.04755   0.00000   0.00246   0.00246   2.15517
    A4        1.63191  -0.00482   0.00000  -0.00333  -0.00333   1.62858
    A5        1.86591   0.00098   0.00000   0.00202   0.00201   1.86793
    A6        2.11285   0.00084   0.00000  -0.00050  -0.00049   2.11236
    A7        1.99014  -0.00447   0.00000  -0.00231  -0.00230   1.98784
    A8        1.98604   0.00728   0.00000   0.00404   0.00404   1.99008
    A9        1.87173  -0.00076   0.00000  -0.00042  -0.00042   1.87131
   A10        1.58686   0.00421   0.00000   0.00075   0.00074   1.58760
   A11        1.99412  -0.00397   0.00000   0.00088   0.00089   1.99501
   A12        2.00790   0.00143   0.00000  -0.00161  -0.00161   2.00629
   A13        2.12762  -0.00155   0.00000  -0.00232  -0.00232   2.12530
   A14        1.87760  -0.00074   0.00000   0.00165   0.00165   1.87926
   A15        1.86450   0.00101   0.00000   0.00045   0.00045   1.86495
   A16        2.17354  -0.03035   0.00000  -0.00379  -0.00380   2.16974
   A17        2.06755  -0.02509   0.00000  -0.00203  -0.00205   2.06550
   A18        2.01024   0.05706   0.00000   0.00723   0.00724   2.01748
   A19        1.67229   0.00240   0.00000  -0.00046  -0.00046   1.67183
   A20        2.30547  -0.00712   0.00000  -0.00439  -0.00440   2.30107
   A21        2.30537   0.00474   0.00000   0.00485   0.00485   2.31022
   A22        1.68640   0.00370   0.00000  -0.00059  -0.00059   1.68581
   A23        2.29840  -0.00779   0.00000  -0.00464  -0.00464   2.29376
   A24        2.29833   0.00412   0.00000   0.00522   0.00522   2.30355
   A25        1.60021  -0.00447   0.00000  -0.00136  -0.00137   1.59884
   A26        2.05846   0.05010   0.00000   0.00394   0.00395   2.06241
   A27        1.89991  -0.01945   0.00000   0.00282   0.00282   1.90272
   A28        1.85599  -0.02891   0.00000  -0.00527  -0.00527   1.85072
   A29        2.07238   0.01386   0.00000   0.00302   0.00301   2.07540
   A30        1.95795  -0.00603   0.00000  -0.00249  -0.00250   1.95545
   A31        1.65021  -0.01012   0.00000  -0.00500  -0.00498   1.64523
   A32        1.94167   0.05484   0.00000   0.00819   0.00817   1.94984
   A33        2.07187  -0.01588   0.00000   0.00127   0.00127   2.07314
   A34        1.84200  -0.01936   0.00000  -0.00455  -0.00454   1.83747
   A35        2.05571   0.01612   0.00000   0.00498   0.00496   2.06067
   A36        1.88410  -0.02073   0.00000  -0.00468  -0.00467   1.87943
   A37        1.74058   0.05844   0.00000   0.01253   0.01251   1.75310
   A38        1.65218   0.06630   0.00000   0.01505   0.01507   1.66725
   A39        1.84534  -0.03645   0.00000  -0.00807  -0.00808   1.83727
   A40        1.91903   0.00795   0.00000   0.00031   0.00032   1.91934
   A41        1.93895   0.01806   0.00000  -0.00119  -0.00121   1.93773
   A42        1.91055   0.00066   0.00000   0.00470   0.00470   1.91525
   A43        1.94740   0.01988   0.00000  -0.00159  -0.00161   1.94579
   A44        1.90201  -0.01037   0.00000   0.00558   0.00557   1.90758
    D1       -1.59260   0.00101   0.00000  -0.00036  -0.00036  -1.59296
    D2        0.43932  -0.00533   0.00000  -0.00361  -0.00361   0.43571
    D3        2.58617  -0.00486   0.00000  -0.00272  -0.00272   2.58345
    D4        1.28765   0.01155   0.00000   0.00614   0.00613   1.29377
    D5       -2.96362   0.00521   0.00000   0.00289   0.00288  -2.96074
    D6       -0.81677   0.00568   0.00000   0.00378   0.00377  -0.81300
    D7        1.35686   0.01209   0.00000   0.00392   0.00394   1.36079
    D8       -1.77479   0.00855   0.00000   0.00553   0.00553  -1.76926
    D9       -1.51573   0.01399   0.00000  -0.00173  -0.00174  -1.51747
   D10        1.63581   0.01045   0.00000  -0.00013  -0.00014   1.63567
   D11       -1.61328  -0.00896   0.00000  -0.00406  -0.00404  -1.61733
   D12        2.75834   0.01595   0.00000   0.00193   0.00196   2.76030
   D13        0.50244  -0.00049   0.00000  -0.00068  -0.00066   0.50178
   D14        1.24198  -0.00941   0.00000   0.00297   0.00298   1.24496
   D15       -0.66958   0.01551   0.00000   0.00896   0.00898  -0.66060
   D16       -2.92549  -0.00094   0.00000   0.00636   0.00636  -2.91913
   D17        0.22774  -0.00511   0.00000  -0.00411  -0.00412   0.22362
   D18        2.42585  -0.00587   0.00000  -0.00605  -0.00605   2.41979
   D19       -1.69094  -0.00668   0.00000  -0.00604  -0.00604  -1.69698
   D20       -1.69670  -0.00279   0.00000  -0.00418  -0.00419  -1.70089
   D21        0.50141  -0.00355   0.00000  -0.00613  -0.00613   0.49528
   D22        2.66781  -0.00435   0.00000  -0.00611  -0.00611   2.66170
   D23        2.43188  -0.00408   0.00000  -0.00505  -0.00506   2.42682
   D24       -1.65320  -0.00484   0.00000  -0.00699  -0.00700  -1.66019
   D25        0.51320  -0.00564   0.00000  -0.00698  -0.00698   0.50622
   D26        1.23323   0.00173   0.00000   0.00235   0.00235   1.23558
   D27       -1.62634  -0.01431   0.00000  -0.00495  -0.00493  -1.63127
   D28       -0.85420   0.00415   0.00000   0.00159   0.00158  -0.85262
   D29        2.56942  -0.01189   0.00000  -0.00571  -0.00570   2.56372
   D30       -3.01329   0.00465   0.00000   0.00121   0.00120  -3.01209
   D31        0.41033  -0.01139   0.00000  -0.00609  -0.00608   0.40425
   D32       -1.52567   0.00402   0.00000  -0.00078  -0.00078  -1.52644
   D33        1.62687   0.00303   0.00000  -0.00060  -0.00060   1.62627
   D34        1.34216   0.00821   0.00000   0.00503   0.00504   1.34720
   D35       -1.78848   0.00723   0.00000   0.00521   0.00521  -1.78327
   D36        1.31402   0.00851   0.00000   0.00489   0.00488   1.31891
   D37       -3.07338  -0.00531   0.00000  -0.00051  -0.00054  -3.07392
   D38       -0.87150   0.00360   0.00000   0.00175   0.00175  -0.86976
   D39       -1.57145   0.00651   0.00000  -0.00013  -0.00015  -1.57160
   D40        0.32434  -0.00731   0.00000  -0.00553  -0.00558   0.31875
   D41        2.52621   0.00159   0.00000  -0.00328  -0.00329   2.52292
   D42        0.04831   0.00259   0.00000   0.00245   0.00245   0.05076
   D43       -3.10323   0.00602   0.00000   0.00076   0.00076  -3.10248
   D44       -3.10423   0.00346   0.00000   0.00218   0.00219  -3.10204
   D45        0.02742   0.00689   0.00000   0.00049   0.00049   0.02791
   D46        0.18999  -0.00726   0.00000  -0.00302  -0.00302   0.18697
   D47       -1.79177  -0.05787   0.00000  -0.00905  -0.00906  -1.80083
   D48        2.38766  -0.02620   0.00000  -0.00261  -0.00262   2.38504
   D49        2.28107   0.03850   0.00000  -0.00038  -0.00036   2.28070
   D50        0.29930  -0.01211   0.00000  -0.00641  -0.00640   0.29290
   D51       -1.80445   0.01956   0.00000   0.00003   0.00004  -1.80441
   D52       -1.77590   0.01459   0.00000  -0.00628  -0.00627  -1.78217
   D53        2.52552  -0.03601   0.00000  -0.01231  -0.01231   2.51321
   D54        0.42177  -0.00435   0.00000  -0.00588  -0.00587   0.41589
   D55        1.05059   0.00619   0.00000   0.00157   0.00159   1.05218
   D56       -0.71156   0.00871   0.00000   0.00476   0.00481  -0.70676
   D57       -3.00404   0.01817   0.00000   0.00689   0.00690  -2.99713
   D58       -1.49510  -0.01259   0.00000   0.00533   0.00534  -1.48976
   D59        0.27346  -0.01298   0.00000   0.00057   0.00056   0.27402
   D60        2.48608  -0.01763   0.00000   0.00103   0.00104   2.48713
   D61       -0.76260   0.04203   0.00000   0.00785   0.00785  -0.75475
   D62        1.29814   0.02641   0.00000   0.00903   0.00903   1.30717
   D63       -2.87810   0.03045   0.00000   0.01545   0.01544  -2.86266
   D64        0.92990  -0.03856   0.00000  -0.00911  -0.00911   0.92079
   D65       -1.13650  -0.02807   0.00000  -0.00740  -0.00739  -1.14389
   D66        3.03991  -0.02834   0.00000  -0.01652  -0.01651   3.02340
         Item               Value     Threshold  Converged?
 Maximum Force            0.066303     0.000015     NO 
 RMS     Force            0.021178     0.000010     NO 
 Maximum Displacement     0.052982     0.000060     NO 
 RMS     Displacement     0.011436     0.000040     NO 
 Predicted change in Energy=-9.815986D-03
 GradGradGradGradGradGradGradGradGradGradGradGradGradGradGradGradGradGrad

                          Input orientation:                          
 ---------------------------------------------------------------------
 Center     Atomic      Atomic             Coordinates (Angstroms)
 Number     Number       Type             X           Y           Z
 ---------------------------------------------------------------------
      1          6           0       -0.230618    0.452221    0.352116
      2          6           0        0.573888    1.547825    1.099326
      3          6           0        0.678442    2.453123   -0.154797
      4          6           0       -0.367980    1.625276   -0.871078
      5          6           0       -1.856741    1.612335   -0.507836
      6          6           0       -1.760503    0.625399    0.433173
      7          1           0        0.534941    3.497326    0.041505
      8          1           0       -2.686058    2.177614   -0.877038
      9          1           0       -2.496594    0.138929    1.037466
     10          1           0       -0.066564    1.939885    1.866443
     11          6           0        0.453008   -0.462873   -0.635561
     12          6           0        0.111803    0.459044   -1.790938
     13          8           0       -0.981437   -0.168177   -2.462737
     14          8           0       -0.158007   -1.700187   -0.930518
     15          6           0       -1.398580   -1.124150   -1.451345
     16          1           0       -1.922785   -0.618039   -0.662207
     17          1           0       -2.034455   -1.877186   -1.872931
     18          1           0        0.872413    0.656404   -2.520503
     19          1           0        1.480665   -0.579155   -0.350938
     20          1           0        1.517438    1.325274    1.556784
     21          1           0        1.596728    2.362877   -0.703095
 ---------------------------------------------------------------------
                    Distance matrix (angstroms):
                    1          2          3          4          5
     1  C    0.000000
     2  C    1.551097   0.000000
     3  C    2.255428   1.550264   0.000000
     4  C    1.700332   2.185316   1.514394   0.000000
     5  C    2.174777   2.914633   2.694200   1.532488   0.000000
     6  C    1.541788   2.596923   3.103986   2.154053   1.367041
     7  H    3.155190   2.218345   1.072142   2.269944   3.094367
     8  H    3.242990   3.863922   3.452158   2.382981   1.069400
     9  H    2.387991   3.378857   4.105829   3.222229   2.228967
    10  H    2.129142   1.073480   2.214465   2.771976   2.991525
    11  C    1.510049   2.658449   2.963948   2.256071   3.107691
    12  C    2.170249   3.122914   2.640907   1.560907   2.617555
    13  O    2.978594   4.248764   3.866911   2.475112   2.785322
    14  O    2.506647   3.899425   4.307130   3.332615   3.746620
    15  C    2.664874   4.187601   4.334967   2.993023   2.930610
    16  H    2.244490   3.745309   4.056584   2.737426   2.236685
    17  H    3.691992   5.231488   5.391045   4.006007   3.751243
    18  H    3.083878   3.739907   2.976976   2.279888   3.523196
    19  H    2.118138   2.729387   3.142728   2.923619   3.995688
    20  H    2.295462   1.071953   2.214829   3.088578   3.966124
    21  H    2.846624   2.226934   1.073324   2.105315   3.539475
                    6          7          8          9         10
     6  C    0.000000
     7  H    3.697354   0.000000
     8  H    2.232190   3.600027   0.000000
     9  H    1.069417   4.632598   2.803115   0.000000
    10  H    2.579063   2.473425   3.800652   3.136191   0.000000
    11  C    2.688152   4.018496   4.109041   3.444029   3.507596
    12  C    2.912022   3.573241   3.408331   3.860838   3.949828
    13  O    3.102096   4.691113   3.304982   3.826413   4.901298
    14  O    3.136239   5.332836   4.629388   3.567113   4.591457
    15  C    2.596790   5.227346   3.590135   2.999197   4.708534
    16  H    1.665032   4.844776   2.905927   1.947086   4.047543
    17  H    3.414103   6.257175   4.225848   3.570533   5.694344
    18  H    3.956944   3.840391   4.204494   4.927182   4.666293
    19  H    3.545553   4.203106   5.023757   4.273394   3.695437
    20  H    3.535141   2.824744   4.931465   4.217767   1.727049
    21  H    3.947269   1.723019   4.290318   4.973005   3.089982
                   11         12         13         14         15
    11  C    0.000000
    12  C    1.516987   0.000000
    13  O    2.341592   1.428248   0.000000
    14  O    1.411129   2.339957   2.317928   0.000000
    15  C    2.128654   2.214291   1.452862   1.463591   0.000000
    16  H    2.381004   2.563920   2.080966   2.087456   1.074094
    17  H    3.117505   3.173502   2.092231   2.107256   1.071977
    18  H    2.231969   1.072261   2.029786   3.023796   3.077480
    19  H    1.072665   2.241705   3.269640   2.068302   3.130170
    20  H    3.022723   3.732748   4.962995   4.259953   4.853007
    21  H    3.049183   2.648204   4.018645   4.431626   4.657371
                   16         17         18         19         20
    16  H    0.000000
    17  H    1.750364   0.000000
    18  H    3.590348   3.910027   0.000000
    19  H    3.417875   4.044430   2.569745   0.000000
    20  H    4.531613   5.885120   4.181830   2.695849   0.000000
    21  H    4.612429   5.703695   2.596084   2.965306   2.487963
                   21
    21  H    0.000000
 Symmetry turned off by external request.
 Stoichiometry    C9H10O2
 Framework group  C1[X(C9H10O2)]
 Deg. of freedom    57
 Full point group                 C1      NOp   1
 Rotational constants (GHZ):           2.2139278           1.2222872           1.1645127
 Standard basis: VSTO-6G (5D, 7F)
    54 basis functions,   324 primitive gaussians,    54 cartesian basis functions
    29 alpha electrons       29 beta electrons
       nuclear repulsion energy       373.2244254894 Hartrees.
 Integral buffers will be    131072 words long.
 Regular integral format.
 Two-electron integral symmetry is turned off.
 Do NDO integrals.
 One-electron integrals computed using PRISM.
 NBasis=    54 RedAO= F EigKep=  0.00D+00  NBF=    54
 NBsUse=    54 1.00D-04 EigRej=  0.00D+00 NBFU=    54
 Initial guess from the checkpoint file:  "C:\Users\al6323\OneDrive - Imperial College London\Desktop\TSR20251115\Exercise 2\Product_PM6_endo.chk"
 B after Tr=    -0.001288    0.001291    0.002480
         Rot=    1.000000    0.000308    0.000009    0.000159 Ang=   0.04 deg.
 Keep J ints in memory in canonical form, NReq=867381.
 Overlap will be assumed to be unity.
 Requested convergence on RMS density matrix=1.00D-08 within  32 cycles.
 Requested convergence on MAX density matrix=1.00D-06.
 Requested convergence on             energy=1.00D-06.
 No special actions if energy rises.
 SCF Done:  E(RPM6) =  0.863618959546E-01 A.U. after   13 cycles
            NFock= 12  Conv=0.54D-08     -V/T= 1.0008
 QCSCF skips out because SCF is already converged.
 Calling FoFJK, ICntrl=      2127 FMM=F ISym2X=0 I1Cent= 0 IOpClX= 0 NMat=1 NMatS=1 NMatT=0.
 -------------------------------------------------------------------
 Center     Atomic                   Forces (Hartrees/Bohr)
 Number     Number              X              Y              Z
 -------------------------------------------------------------------
      1        6          -0.021733444    0.051546855    0.012756405
      2        6           0.001756285   -0.013154424   -0.002766834
      3        6          -0.008683781   -0.001509828   -0.000684268
      4        6          -0.022806014   -0.029157203    0.012835105
      5        6           0.012729731    0.003074329    0.009658909
      6        6           0.010663918    0.031294657    0.012859857
      7        1          -0.008447547    0.010645358   -0.001206103
      8        1           0.006167368    0.000653098   -0.002049635
      9        1           0.005416101    0.000324690    0.003911590
     10        1          -0.005310415    0.010739816    0.013431161
     11        6           0.034638870   -0.015227403    0.035193392
     12        6           0.003688891    0.043924219   -0.036275853
     13        8          -0.003697417   -0.011403160    0.005647443
     14        8          -0.022570453    0.006461281   -0.002347044
     15        6          -0.013130629   -0.046284426   -0.034116726
     16        1          -0.021626777   -0.017767149   -0.001872105
     17        1           0.002073399   -0.010122494   -0.011601992
     18        1           0.006691639    0.006270399   -0.010915729
     19        1           0.016965966   -0.012731267   -0.002249577
     20        1           0.008649850   -0.009656637    0.002425507
     21        1           0.018564460    0.002079291   -0.002633504
 -------------------------------------------------------------------
 Cartesian Forces:  Max     0.051546855 RMS     0.017623142

 GradGradGradGradGradGradGradGradGradGradGradGradGradGradGradGradGradGrad
 Berny optimization.
 Using GEDIIS/GDIIS optimizer.
 FormGI is forming the generalized inverse of G from B-inverse, IUseBI=4.
 Internal  Forces:  Max     0.058914926 RMS     0.018756417
 Search for a local minimum.
 Step number   2 out of a maximum of  126
 All quantities printed in internal units (Hartrees-Bohrs-Radians)
 Mixed Optimization -- RFO/linear search
 Update second derivatives using D2CorX and points    1    2
 DE= -9.82D-03 DEPred=-9.82D-03 R= 1.00D+00
 TightC=F SS=  1.41D+00  RLast= 6.05D-02 DXNew= 6.7272D-02 1.8153D-01
 Trust test= 1.00D+00 RLast= 6.05D-02 DXMaxT set to 6.73D-02
 ITU=  1  0
 Use linear search instead of GDIIS.
 Linear search step of   0.080 exceeds DXMaxT=   0.067 but not scaled.
 Quartic linear search produced a step of  2.00000.
 Iteration  1 RMS(Cart)=  0.02281399 RMS(Int)=  0.00031570
 Iteration  2 RMS(Cart)=  0.00037601 RMS(Int)=  0.00007433
 Iteration  3 RMS(Cart)=  0.00000012 RMS(Int)=  0.00007433
 Variable       Old X    -DE/DX   Delta X   Delta X   Delta X     New X
                                 (Linear)    (Quad)   (Total)
    R1        2.93115  -0.00575  -0.00387   0.00000  -0.00382   2.92733
    R2        2.91356  -0.01190  -0.01635   0.00000  -0.01640   2.89716
    R3        2.85358   0.04933   0.01395   0.00000   0.01390   2.86748
    R4        2.92957   0.00694   0.00396   0.00000   0.00410   2.93368
    R5        2.02858   0.01669   0.01315   0.00000   0.01315   2.04173
    R6        2.02570   0.01065   0.00738   0.00000   0.00738   2.03308
    R7        2.86179   0.01131   0.00792   0.00000   0.00787   2.86966
    R8        2.02605   0.01128   0.00809   0.00000   0.00809   2.03415
    R9        2.02829   0.01705   0.01256   0.00000   0.01256   2.04085
   R10        2.89598  -0.01762  -0.01224   0.00000  -0.01222   2.88376
   R11        2.94969   0.02424  -0.00437   0.00000  -0.00432   2.94536
   R12        2.58333  -0.01121  -0.00747   0.00000  -0.00762   2.57571
   R13        2.02087  -0.00373  -0.00227   0.00000  -0.00227   2.01861
   R14        2.02090  -0.00167  -0.00220   0.00000  -0.00220   2.01870
   R15        2.86669   0.03896   0.02401   0.00000   0.02390   2.89058
   R16        2.66665   0.05030   0.00699   0.00000   0.00699   2.67363
   R17        2.02704   0.01704   0.01007   0.00000   0.01007   2.03711
   R18        2.69900   0.04780   0.00829   0.00000   0.00823   2.70723
   R19        2.02628   0.01333   0.00855   0.00000   0.00855   2.03482
   R20        2.74551   0.00911   0.00258   0.00000   0.00272   2.74823
   R21        2.76579   0.00182  -0.00259   0.00000  -0.00252   2.76327
   R22        2.02974   0.00081   0.01547   0.00000   0.01547   2.04521
   R23        2.02574   0.01044   0.00747   0.00000   0.00747   2.03322
    A1        1.99325  -0.01871   0.00540   0.00000   0.00540   1.99865
    A2        2.10403  -0.02234  -0.00730   0.00000  -0.00738   2.09664
    A3        2.15517   0.04180   0.00491   0.00000   0.00489   2.16006
    A4        1.62858  -0.00450  -0.00666   0.00000  -0.00668   1.62190
    A5        1.86793   0.00099   0.00402   0.00000   0.00398   1.87191
    A6        2.11236   0.00074  -0.00099   0.00000  -0.00094   2.11142
    A7        1.98784  -0.00402  -0.00460   0.00000  -0.00453   1.98331
    A8        1.99008   0.00663   0.00807   0.00000   0.00803   1.99811
    A9        1.87131  -0.00070  -0.00083   0.00000  -0.00083   1.87049
   A10        1.58760   0.00367   0.00148   0.00000   0.00142   1.58902
   A11        1.99501  -0.00333   0.00178   0.00000   0.00184   1.99685
   A12        2.00629   0.00108  -0.00322   0.00000  -0.00326   2.00303
   A13        2.12530  -0.00149  -0.00464   0.00000  -0.00460   2.12070
   A14        1.87926  -0.00051   0.00331   0.00000   0.00331   1.88257
   A15        1.86495   0.00091   0.00090   0.00000   0.00090   1.86585
   A16        2.16974  -0.02681  -0.00759   0.00000  -0.00765   2.16210
   A17        2.06550  -0.02221  -0.00409   0.00000  -0.00421   2.06130
   A18        2.01748   0.05052   0.01449   0.00000   0.01457   2.03205
   A19        1.67183   0.00214  -0.00091   0.00000  -0.00086   1.67097
   A20        2.30107  -0.00658  -0.00879   0.00000  -0.00882   2.29225
   A21        2.31022   0.00445   0.00970   0.00000   0.00967   2.31989
   A22        1.68581   0.00311  -0.00119   0.00000  -0.00120   1.68461
   A23        2.29376  -0.00709  -0.00928   0.00000  -0.00928   2.28448
   A24        2.30355   0.00401   0.01043   0.00000   0.01043   2.31399
   A25        1.59884  -0.00404  -0.00273   0.00000  -0.00280   1.59605
   A26        2.06241   0.04414   0.00790   0.00000   0.00797   2.07037
   A27        1.90272  -0.01682   0.00563   0.00000   0.00559   1.90831
   A28        1.85072  -0.02549  -0.01053   0.00000  -0.01051   1.84021
   A29        2.07540   0.01228   0.00603   0.00000   0.00600   2.08140
   A30        1.95545  -0.00555  -0.00500   0.00000  -0.00504   1.95041
   A31        1.64523  -0.00910  -0.00997   0.00000  -0.00987   1.63536
   A32        1.94984   0.04841   0.01633   0.00000   0.01622   1.96605
   A33        2.07314  -0.01373   0.00254   0.00000   0.00257   2.07571
   A34        1.83747  -0.01706  -0.00907   0.00000  -0.00899   1.82848
   A35        2.06067   0.01427   0.00993   0.00000   0.00982   2.07050
   A36        1.87943  -0.01840  -0.00933   0.00000  -0.00926   1.87017
   A37        1.75310   0.05167   0.02503   0.00000   0.02490   1.77800
   A38        1.66725   0.05891   0.03013   0.00000   0.03019   1.69743
   A39        1.83727  -0.03232  -0.01615   0.00000  -0.01620   1.82107
   A40        1.91934   0.00698   0.00064   0.00000   0.00069   1.92003
   A41        1.93773   0.01564  -0.00243   0.00000  -0.00258   1.93515
   A42        1.91525   0.00081   0.00939   0.00000   0.00938   1.92463
   A43        1.94579   0.01722  -0.00322   0.00000  -0.00338   1.94241
   A44        1.90758  -0.00867   0.01114   0.00000   0.01111   1.91869
    D1       -1.59296   0.00088  -0.00073   0.00000  -0.00077  -1.59373
    D2        0.43571  -0.00486  -0.00723   0.00000  -0.00724   0.42847
    D3        2.58345  -0.00437  -0.00544   0.00000  -0.00544   2.57801
    D4        1.29377   0.01040   0.01225   0.00000   0.01216   1.30593
    D5       -2.96074   0.00466   0.00575   0.00000   0.00569  -2.95505
    D6       -0.81300   0.00515   0.00754   0.00000   0.00748  -0.80551
    D7        1.36079   0.01091   0.00787   0.00000   0.00794   1.36873
    D8       -1.76926   0.00792   0.01106   0.00000   0.01109  -1.75817
    D9       -1.51747   0.01207  -0.00347   0.00000  -0.00349  -1.52096
   D10        1.63567   0.00908  -0.00028   0.00000  -0.00035   1.63532
   D11       -1.61733  -0.00797  -0.00809   0.00000  -0.00797  -1.62530
   D12        2.76030   0.01426   0.00392   0.00000   0.00411   2.76441
   D13        0.50178  -0.00044  -0.00133   0.00000  -0.00126   0.50051
   D14        1.24496  -0.00783   0.00596   0.00000   0.00603   1.25099
   D15       -0.66060   0.01440   0.01797   0.00000   0.01812  -0.64248
   D16       -2.91913  -0.00030   0.01272   0.00000   0.01274  -2.90639
   D17        0.22362  -0.00480  -0.00823   0.00000  -0.00826   0.21536
   D18        2.41979  -0.00559  -0.01211   0.00000  -0.01211   2.40769
   D19       -1.69698  -0.00627  -0.01207   0.00000  -0.01206  -1.70903
   D20       -1.70089  -0.00278  -0.00838   0.00000  -0.00843  -1.70931
   D21        0.49528  -0.00356  -0.01226   0.00000  -0.01227   0.48301
   D22        2.66170  -0.00425  -0.01222   0.00000  -0.01222   2.64947
   D23        2.42682  -0.00398  -0.01011   0.00000  -0.01016   2.41666
   D24       -1.66019  -0.00476  -0.01399   0.00000  -0.01400  -1.67419
   D25        0.50622  -0.00545  -0.01395   0.00000  -0.01396   0.49227
   D26        1.23558   0.00171   0.00471   0.00000   0.00472   1.24030
   D27       -1.63127  -0.01272  -0.00986   0.00000  -0.00974  -1.64100
   D28       -0.85262   0.00372   0.00317   0.00000   0.00314  -0.84948
   D29        2.56372  -0.01071  -0.01140   0.00000  -0.01132   2.55240
   D30       -3.01209   0.00411   0.00240   0.00000   0.00236  -3.00973
   D31        0.40425  -0.01032  -0.01216   0.00000  -0.01209   0.39216
   D32       -1.52644   0.00345  -0.00155   0.00000  -0.00155  -1.52799
   D33        1.62627   0.00259  -0.00121   0.00000  -0.00121   1.62506
   D34        1.34720   0.00757   0.01007   0.00000   0.01009   1.35729
   D35       -1.78327   0.00671   0.01042   0.00000   0.01043  -1.77285
   D36        1.31891   0.00769   0.00977   0.00000   0.00970   1.32861
   D37       -3.07392  -0.00488  -0.00109   0.00000  -0.00130  -3.07523
   D38       -0.86976   0.00324   0.00349   0.00000   0.00349  -0.86627
   D39       -1.57160   0.00546  -0.00031   0.00000  -0.00046  -1.57206
   D40        0.31875  -0.00711  -0.01117   0.00000  -0.01146   0.30729
   D41        2.52292   0.00101  -0.00659   0.00000  -0.00667   2.51625
   D42        0.05076   0.00241   0.00490   0.00000   0.00494   0.05569
   D43       -3.10248   0.00531   0.00151   0.00000   0.00150  -3.10098
   D44       -3.10204   0.00316   0.00437   0.00000   0.00440  -3.09764
   D45        0.02791   0.00606   0.00098   0.00000   0.00096   0.02887
   D46        0.18697  -0.00664  -0.00604   0.00000  -0.00607   0.18091
   D47       -1.80083  -0.05130  -0.01811   0.00000  -0.01818  -1.81900
   D48        2.38504  -0.02319  -0.00524   0.00000  -0.00529   2.37975
   D49        2.28070   0.03366  -0.00073   0.00000  -0.00064   2.28006
   D50        0.29290  -0.01100  -0.01280   0.00000  -0.01275   0.28015
   D51       -1.80441   0.01711   0.00007   0.00000   0.00013  -1.80428
   D52       -1.78217   0.01232  -0.01255   0.00000  -0.01250  -1.79468
   D53        2.51321  -0.03234  -0.02462   0.00000  -0.02461   2.48860
   D54        0.41589  -0.00422  -0.01175   0.00000  -0.01173   0.40416
   D55        1.05218   0.00559   0.00317   0.00000   0.00326   1.05544
   D56       -0.70676   0.00831   0.00961   0.00000   0.00987  -0.69689
   D57       -2.99713   0.01650   0.01381   0.00000   0.01392  -2.98322
   D58       -1.48976  -0.01055   0.01068   0.00000   0.01074  -1.47902
   D59        0.27402  -0.01146   0.00112   0.00000   0.00103   0.27505
   D60        2.48713  -0.01529   0.00208   0.00000   0.00214   2.48927
   D61       -0.75475   0.03730   0.01570   0.00000   0.01571  -0.73904
   D62        1.30717   0.02373   0.01806   0.00000   0.01808   1.32525
   D63       -2.86266   0.02775   0.03088   0.00000   0.03081  -2.83185
   D64        0.92079  -0.03431  -0.01822   0.00000  -0.01825   0.90254
   D65       -1.14389  -0.02500  -0.01478   0.00000  -0.01471  -1.15860
   D66        3.02340  -0.02595  -0.03302   0.00000  -0.03295   2.99046
         Item               Value     Threshold  Converged?
 Maximum Force            0.058915     0.000015     NO 
 RMS     Force            0.018756     0.000010     NO 
 Maximum Displacement     0.104208     0.000060     NO 
 RMS     Displacement     0.022899     0.000040     NO 
 Predicted change in Energy=-1.649975D-02
 GradGradGradGradGradGradGradGradGradGradGradGradGradGradGradGradGradGrad

                          Input orientation:                          
 ---------------------------------------------------------------------
 Center     Atomic      Atomic             Coordinates (Angstroms)
 Number     Number       Type             X           Y           Z
 ---------------------------------------------------------------------
      1          6           0       -0.236327    0.468262    0.362482
      2          6           0        0.581146    1.554640    1.104878
      3          6           0        0.678522    2.455747   -0.155510
      4          6           0       -0.374097    1.623241   -0.866111
      5          6           0       -1.853755    1.623793   -0.492807
      6          6           0       -1.756663    0.644950    0.450710
      7          1           0        0.531541    3.504885    0.035263
      8          1           0       -2.675047    2.196576   -0.864896
      9          1           0       -2.482329    0.160768    1.067262
     10          1           0       -0.053839    1.960165    1.879275
     11          6           0        0.448986   -0.460055   -0.622955
     12          6           0        0.107339    0.465476   -1.791904
     13          8           0       -0.974383   -0.185558   -2.468944
     14          8           0       -0.166222   -1.696697   -0.929499
     15          6           0       -1.409601   -1.154147   -1.475257
     16          1           0       -1.975509   -0.657994   -0.697495
     17          1           0       -2.007073   -1.925906   -1.928076
     18          1           0        0.866439    0.668602   -2.528089
     19          1           0        1.480181   -0.587247   -0.335674
     20          1           0        1.527526    1.320967    1.560110
     21          1           0        1.602172    2.363300   -0.707473
 ---------------------------------------------------------------------
                    Distance matrix (angstroms):
                    1          2          3          4          5
     1  C    0.000000
     2  C    1.549075   0.000000
     3  C    2.248413   1.552435   0.000000
     4  C    1.691862   2.191345   1.518560   0.000000
     5  C    2.163988   2.913095   2.686697   1.526022   0.000000
     6  C    1.533109   2.592455   3.094611   2.145358   1.363006
     7  H    3.149250   2.224859   1.076425   2.274476   3.083343
     8  H    3.231235   3.859390   3.437561   2.371305   1.068201
     9  H    2.373982   3.365884   4.093052   3.212694   2.229207
    10  H    2.135355   1.080439   2.218627   2.784462   2.996601
    11  C    1.517403   2.657418   2.961940   2.253157   3.108372
    12  C    2.181626   3.130834   2.639169   1.558620   2.622068
    13  O    2.998195   4.268508   3.880793   2.490215   2.819957
    14  O    2.522137   3.907485   4.307603   3.327044   3.750216
    15  C    2.717732   4.237653   4.374165   3.026089   2.979837
    16  H    2.327393   3.831551   4.127107   2.792309   2.294183
    17  H    3.756891   5.292626   5.436294   4.048559   3.831953
    18  H    3.100263   3.750321   2.976295   2.283077   3.529053
    19  H    2.132585   2.733337   3.151972   2.933593   4.003563
    20  H    2.296213   1.075859   2.225283   3.097432   3.967270
    21  H    2.848869   2.231825   1.079972   2.116245   3.540675
                    6          7          8          9         10
     6  C    0.000000
     7  H    3.686151   0.000000
     8  H    2.231993   3.578292   0.000000
     9  H    1.068250   4.618610   2.813341   0.000000
    10  H    2.582673   2.475725   3.802249   3.129658   0.000000
    11  C    2.690479   4.020052   4.108018   3.440183   3.517308
    12  C    2.921649   3.571624   3.405544   3.869632   3.967069
    13  O    3.134658   4.707253   3.337633   3.859869   4.935437
    14  O    3.149252   5.336113   4.632058   3.577930   4.612427
    15  C    2.658298   5.268424   3.633351   3.056819   4.773879
    16  H    1.750409   4.914449   2.943799   2.010374   4.145759
    17  H    3.511499   6.308150   4.309455   3.681321   5.780363
    18  H    3.969190   3.837634   4.200362   4.939503   4.684006
    19  H    3.551601   4.216996   5.029480   4.269571   3.707901
    20  H    3.531807   2.843702   4.930412   4.203319   1.735268
    21  H    3.946630   1.732376   4.283362   4.968297   3.097767
                   11         12         13         14         15
    11  C    0.000000
    12  C    1.529632   0.000000
    13  O    2.347126   1.432602   0.000000
    14  O    1.414826   2.343837   2.303596   0.000000
    15  C    2.159289   2.241551   1.454302   1.462260   0.000000
    16  H    2.433704   2.607330   2.088894   2.099107   1.082281
    17  H    3.143928   3.194994   2.094707   2.106757   1.075932
    18  H    2.253369   1.076783   2.030200   3.035872   3.100198
    19  H    1.077994   2.261311   3.276748   2.072233   3.157668
    20  H    3.016796   3.739625   4.976187   4.263007   4.895544
    21  H    3.050953   2.648066   4.029651   4.433970   4.693901
                   16         17         18         19         20
    16  H    0.000000
    17  H    1.767180   0.000000
    18  H    3.631473   3.917723   0.000000
    19  H    3.475301   4.060627   2.600100   0.000000
    20  H    4.613493   5.933212   4.192373   2.690263   0.000000
    21  H    4.682747   5.737055   2.593829   2.976381   2.496791
                   21
    21  H    0.000000
 Symmetry turned off by external request.
 Stoichiometry    C9H10O2
 Framework group  C1[X(C9H10O2)]
 Deg. of freedom    57
 Full point group                 C1      NOp   1
 Rotational constants (GHZ):           2.2161233           1.2079488           1.1537472
 Standard basis: VSTO-6G (5D, 7F)
    54 basis functions,   324 primitive gaussians,    54 cartesian basis functions
    29 alpha electrons       29 beta electrons
       nuclear repulsion energy       372.3399534318 Hartrees.
 Integral buffers will be    131072 words long.
 Regular integral format.
 Two-electron integral symmetry is turned off.
 Do NDO integrals.
 One-electron integrals computed using PRISM.
 NBasis=    54 RedAO= F EigKep=  0.00D+00  NBF=    54
 NBsUse=    54 1.00D-04 EigRej=  0.00D+00 NBFU=    54
 Initial guess from the checkpoint file:  "C:\Users\al6323\OneDrive - Imperial College London\Desktop\TSR20251115\Exercise 2\Product_PM6_endo.chk"
 B after Tr=    -0.002838    0.002584    0.005007
         Rot=    1.000000    0.000606    0.000012    0.000335 Ang=   0.08 deg.
 Keep J ints in memory in canonical form, NReq=867381.
 Overlap will be assumed to be unity.
 Requested convergence on RMS density matrix=1.00D-08 within  32 cycles.
 Requested convergence on MAX density matrix=1.00D-06.
 Requested convergence on             energy=1.00D-06.
 No special actions if energy rises.
 SCF Done:  E(RPM6) =  0.697545645352E-01 A.U. after   14 cycles
            NFock= 13  Conv=0.28D-08     -V/T= 1.0006
 QCSCF skips out because SCF is already converged.
 Calling FoFJK, ICntrl=      2127 FMM=F ISym2X=0 I1Cent= 0 IOpClX= 0 NMat=1 NMatS=1 NMatT=0.
 -------------------------------------------------------------------
 Center     Atomic                   Forces (Hartrees/Bohr)
 Number     Number              X              Y              Z
 -------------------------------------------------------------------
      1        6          -0.016753332    0.042738837    0.006973615
      2        6           0.000938100   -0.010461392   -0.001213008
      3        6          -0.006211908   -0.000966463   -0.001389395
      4        6          -0.017302694   -0.026102375    0.012026404
      5        6           0.009065113    0.003126348    0.006286267
      6        6           0.007534857    0.022463986    0.011121002
      7        1          -0.007883853    0.008018651   -0.001522098
      8        1           0.004937824    0.000605715   -0.001949850
      9        1           0.004470649    0.000162962    0.003285958
     10        1          -0.002980630    0.009097509    0.010760592
     11        6           0.027588995   -0.011987152    0.029242810
     12        6           0.002026702    0.034393281   -0.030193225
     13        8          -0.003452139   -0.007815472    0.005942830
     14        8          -0.020796439    0.006716751    0.000805780
     15        6          -0.008224113   -0.035181396   -0.026528881
     16        1          -0.015889573   -0.013840949   -0.002155782
     17        1           0.003615357   -0.008039224   -0.010083271
     18        1           0.004917745    0.005316336   -0.008304592
     19        1           0.012903005   -0.011864504   -0.003155324
     20        1           0.006572192   -0.008671136    0.001078624
     21        1           0.014924143    0.002289687   -0.001028455
 -------------------------------------------------------------------
 Cartesian Forces:  Max     0.042738837 RMS     0.014095053

 GradGradGradGradGradGradGradGradGradGradGradGradGradGradGradGradGradGrad
 Berny optimization.
 Using GEDIIS/GDIIS optimizer.
 FormGI is forming the generalized inverse of G from B-inverse, IUseBI=4.
 Internal  Forces:  Max     0.045208162 RMS     0.014371862
 Search for a local minimum.
 Step number   3 out of a maximum of  126
 All quantities printed in internal units (Hartrees-Bohrs-Radians)
 Mixed Optimization -- RFO/linear search
 Update second derivatives using D2CorX and points    1    2    3
 ITU=  0  1  0
 Use linear search instead of GDIIS.
 Linear search step of   0.160 exceeds DXMaxT=   0.067 scaled by   0.842
[...]
 0164,-0.07529153,0.22932311,0.00001292,0.00028358,-0.00010506,-0.00936
 287,0.02057416,-0.00046899,0.01397296,-0.03609713,-0.04365004,0.001380
 10,-0.01569296,-0.00289246,0.00043786,0.00029603,0.00014915,0.00017102
 ,-0.00000689,-0.00007610,-0.01574817,0.04008056,0.05026881,-0.00098800
 ,0.00189061,0.00021829,0.00055711,-0.00025714,-0.00003049,0.00002574,0
 .00035262,-0.00007651,-0.02510859,0.01109306,-0.00445138,-0.14682228,0
 .07226933,-0.06577505,0.00013461,0.00497422,-0.00568140,-0.00002120,-0
 .00009087,0.00003380,0.17197099,0.00227941,0.00422811,0.00392295,0.000
 87939,-0.00045076,0.00027022,0.00006263,-0.00058309,-0.00002197,0.0036
 2626,0.00425035,0.00205155,0.07177033,-0.08754724,0.04105949,0.0131055
 6,-0.00845219,0.01358922,-0.00020194,0.00009689,-0.00002708,-0.0905219
 6,0.08771874,-0.00015850,0.00400352,0.00202216,0.00076760,-0.00022601,
 0.00030941,0.00042988,-0.00056507,-0.00018251,0.00521755,-0.00096179,0
 .00502118,-0.06515231,0.04097821,-0.07647294,-0.01705767,0.01642877,-0
 .01303381,-0.00012178,-0.00015404,0.00001037,0.07663363,-0.06107691,0.
 08209640,-0.02213085,-0.00434776,0.01651186,0.00001504,0.00006091,0.00
 036700,0.00048753,-0.00006066,-0.00033037,-0.00048693,0.00077083,0.001
 61824,0.00496336,-0.00066514,0.00063434,-0.10630486,-0.04337749,0.0835
 9674,-0.00006178,-0.00009602,0.00000714,0.00062210,0.00004526,0.000095
 44,0.12312274,0.00221662,0.00543122,-0.00015975,0.00036749,-0.00032407
 ,-0.00064909,0.00092526,0.00036823,-0.00064207,0.00053609,0.00458342,0
 .00407066,-0.00868923,-0.00592421,0.01743864,-0.04294066,-0.06542895,0
 .04923665,-0.00007222,-0.00007551,0.00000423,0.00026961,0.00047277,0.0
 0083363,0.04836555,0.06075796,0.00617466,0.00273405,0.00086261,-0.0001
 2710,-0.00010372,-0.00043084,0.00044313,0.00013535,-0.00043998,0.00210
 895,0.00401023,0.00116589,0.01208991,0.01461254,-0.02039027,0.08292816
 ,0.04931035,-0.13910886,0.00000035,0.00004368,0.00002580,-0.00022087,0
 .00090756,-0.00007799,-0.10265307,-0.07093879,0.15790555,0.00349780,-0
 .01129365,-0.01313299,-0.05154426,0.02404549,0.05127371,0.00257509,0.0
 0027193,0.00148598,-0.00042220,0.00004071,-0.00043956,-0.00008331,0.00
 009049,-0.00005566,0.00002344,-0.00017724,-0.00020183,0.00054880,0.000
 12749,-0.00046253,-0.00008232,-0.00003206,-0.00006430,-0.00003591,-0.0
 0019137,-0.00012564,0.05892582,-0.00086170,-0.01382094,-0.02112714,0.0
 2263330,-0.06784109,-0.06601367,-0.00461214,0.00501989,0.01409291,-0.0
 0025172,-0.00002347,-0.00008114,0.00017122,-0.00004118,-0.00003083,0.0
 0032206,0.00023015,0.00014495,-0.00030723,0.00049960,0.00054658,-0.000
 03891,0.00002351,-0.00003158,0.00000807,-0.00005496,-0.00000668,-0.025
 35318,0.08001603,-0.00461041,-0.01404993,-0.01257348,0.04909132,-0.064
 51659,-0.16849435,0.00611890,0.00055635,-0.02920495,-0.00083899,-0.000
 05995,-0.00107309,-0.00001152,-0.00000600,-0.00001986,-0.00050318,-0.0
 0013419,0.00002332,0.00016025,0.00034751,0.00026278,-0.00009384,0.0000
 0385,-0.00005255,-0.00005134,-0.00009257,0.00017704,-0.05437576,0.0807
 6792,0.21267022,-0.07635545,0.03713770,0.03770353,0.00439422,-0.010128
 99,-0.00457406,-0.00016273,0.00097038,0.00046969,0.00126285,0.03065928
 ,-0.00341788,-0.00397708,0.00248341,0.00035386,-0.01319531,0.01905193,
 0.00789198,0.00016672,0.00000565,0.00007832,-0.00002086,-0.00089053,-0
 .00054919,-0.00018974,0.00060692,-0.00035240,-0.00126573,-0.00107924,-
 0.00045685,0.47378361,0.03555880,-0.10379635,-0.07464260,-0.00292769,-
 0.01654695,-0.00930024,-0.00130802,-0.00395506,-0.00084913,0.03078573,
 -0.07504467,0.00921093,0.00353442,-0.00318743,-0.00010673,0.00876787,-
 0.00350797,-0.00056106,-0.00008400,-0.00043226,0.00001563,0.00062014,0
 .00046336,0.00061185,-0.00078336,0.00052443,-0.00085283,-0.00003078,-0
 .00057786,-0.00018074,-0.04071276,0.48051071,0.02783435,-0.04963439,-0
 .08317481,-0.00069520,-0.01701469,-0.00580072,-0.00010535,-0.00177795,
 -0.00005041,-0.00363807,0.01461256,0.00144127,0.00224804,-0.00059654,-
 0.00151193,0.01164917,-0.00940342,-0.00039061,-0.00021020,-0.00013287,
 -0.00016605,0.00028157,-0.00022321,-0.00025285,-0.00014666,0.00021475,
 -0.00019962,-0.00048085,-0.00079317,-0.00028104,0.08036062,0.02043251,
 0.34464917,0.00825922,0.00383866,0.01682071,-0.00026501,0.00052953,0.0
 0066445,0.00360360,-0.00662141,-0.00799670,-0.07628282,0.03943783,0.03
 112759,-0.01228973,0.01149255,0.01889747,-0.00357228,0.00071501,0.0024
 9815,-0.00118682,-0.00084193,-0.00062580,-0.00010434,-0.00024068,0.000
 74852,-0.00001695,-0.00062567,-0.00061873,0.00016245,0.00011636,-0.000
 08628,-0.05048676,0.00018372,-0.00181415,0.43275557,0.00457935,0.00279
 320,-0.00659376,-0.00080337,-0.00111645,-0.00244209,-0.00226183,-0.015
 17838,-0.01849047,0.03389795,-0.10964142,-0.04735211,0.01069846,-0.000
 33490,-0.00930225,0.00271511,-0.00136584,-0.00120424,-0.00067746,-0.00
 075190,-0.00079102,-0.00025105,-0.00038102,0.00061532,0.00043756,-0.00
 011648,-0.00021538,-0.00020637,-0.00023688,-0.00016667,0.00635587,-0.0
 5645800,0.04209945,0.08233240,0.38644559,0.01768232,-0.01188026,-0.083
 39293,-0.00143450,-0.00199149,-0.00278635,-0.00331498,-0.00924443,-0.0
 0637841,0.03572538,-0.07330387,-0.07740194,0.00693675,-0.00192761,-0.0
 0446985,0.00286319,-0.00031056,-0.00373774,0.00029599,-0.00001788,-0.0
 0018547,-0.00049431,-0.00063753,0.00062035,0.00045668,0.00096073,0.000
 32312,-0.00010313,-0.00007354,-0.00035735,-0.01187452,0.05174413,-0.08
 475834,-0.06550061,0.03392292,0.47973489,-0.00007791,0.00098815,0.0001
 9847,0.00017168,-0.00016832,-0.00047661,0.00121382,-0.00013341,-0.0000
 5482,0.00565079,-0.00708365,-0.00925347,-0.00024256,0.00015858,0.00083
 946,0.00025065,0.00018690,0.00014394,-0.00015320,0.00025906,-0.0000447
 5,-0.00016070,-0.00017845,-0.00072941,-0.00013945,-0.00032547,0.000027
 99,-0.00004009,0.00008413,0.00021121,-0.01543682,-0.00110176,-0.032765
 25,-0.11963259,-0.05698622,-0.07086701,0.25041920,-0.00028461,0.001259
 08,-0.00060009,-0.00045180,0.00016947,0.00002527,0.00155645,-0.0020534
 0,-0.00229780,-0.01436832,-0.01777946,-0.02332884,-0.00023165,-0.00084
 224,0.00038973,-0.00018241,0.00101379,0.00033551,-0.00056781,0.0000658
 7,-0.00025187,-0.00003869,0.00006460,-0.00000124,-0.00042414,-0.000404
 28,0.00017970,0.00012642,0.00014399,0.00021549,-0.00113892,-0.00255028
 ,-0.00335903,-0.06245677,-0.07174976,-0.03769439,0.17261441,0.26330896
 ,0.00120301,-0.00010364,-0.00120579,-0.00032431,0.00000011,-0.00027073
 ,0.00082976,0.00001609,-0.00088196,-0.00630291,-0.01866949,-0.01589235
 ,0.00002962,-0.00075339,-0.00006935,0.00032703,-0.00023590,-0.00075087
 ,-0.00016196,0.00013459,-0.00010851,-0.00029428,0.00016744,-0.00022574
 ,-0.00007700,-0.00005050,0.00016961,-0.00001750,0.00007058,0.00013344,
 -0.02542334,0.00814407,-0.04111029,-0.07720442,-0.04194937,-0.12821810
 ,0.06154504,-0.04711066,0.33848406,0.00550255,-0.00997117,-0.00390639,
 0.00119683,-0.00014344,-0.00052612,0.00021502,-0.00041622,-0.00004802,
 -0.00022008,0.00060795,0.00104349,0.00015449,0.00041880,0.00021661,-0.
 00039194,0.00085241,-0.00003107,-0.00004463,0.00022330,0.00002829,-0.0
 0022115,-0.00011009,-0.00031669,-0.00001990,-0.00071083,0.00002203,-0.
 00014957,-0.00000628,0.00027429,-0.10757074,-0.08072772,-0.02107306,-0
 .00671835,-0.02631257,0.00629273,0.01267007,0.01780116,-0.01231243,0.2
 7707485,-0.00841205,-0.03027523,-0.01453370,0.00155342,-0.00145550,-0.
 00039716,-0.00035533,-0.00033525,0.00018508,0.00128919,-0.00097352,0.0
 0056417,0.00039275,-0.00049234,0.00021386,-0.00021540,-0.00014442,-0.0
 0092509,-0.00000579,0.00024356,0.00005054,-0.00027554,0.00011579,-0.00
 022174,-0.00023205,-0.00028106,0.00028418,-0.00028116,-0.00016290,0.00
 027870,-0.08895709,-0.16763042,-0.00734194,-0.01743205,-0.04287108,0.0
 2308312,0.00296302,-0.02051003,0.02982460,0.09206409,0.33121441,-0.011
 09580,-0.01995159,-0.00324736,0.00109729,-0.00226194,-0.00146285,-0.00
 036505,0.00018067,0.00019050,-0.00039928,-0.00001126,0.00116897,-0.000
 25901,0.00073324,0.00085159,-0.00030067,0.00002511,-0.00061790,0.00011
 883,0.00017108,0.00003811,-0.00040749,-0.00002682,-0.00026878,0.000044
 89,0.00019726,-0.00002094,-0.00042420,-0.00025380,0.00011671,-0.024880
 84,-0.00490191,-0.04440693,0.00549926,0.01275276,-0.00950816,0.0041186
 1,0.04998452,-0.04616523,0.15585446,-0.05794173,0.24392656,0.00053726,
 0.00103995,-0.00024641,-0.00041867,0.00046554,0.00037247,-0.00029569,0
 .00029494,0.00027917,0.00047902,0.00018751,0.00056449,0.00024492,0.000
 06067,-0.00023308,0.00034042,-0.00003806,0.00023371,0.00006932,-0.0001
 1255,0.00001558,0.00019782,0.00020235,0.00027626,0.00010090,0.00027175
 ,0.00009422,0.00009955,0.00001244,-0.00012233,-0.03887407,-0.01588367,
 -0.02622510,-0.03084053,-0.02970400,0.00535066,-0.08077025,-0.06627502
 ,0.03811096,-0.11137148,0.02290469,-0.08503614,0.45608832,-0.00276100,
 -0.00275889,-0.00044187,0.00048277,-0.00065206,-0.00049757,-0.00018586
 ,0.00020152,0.00015875,-0.00175178,-0.00182354,0.00019863,0.00019102,-
 0.00075101,-0.00040660,-0.00013859,-0.00133124,-0.00148639,0.00010802,
 0.00001133,-0.00000033,-0.00014009,-0.00011570,-0.00022705,0.00028419,
 0.00015203,-0.00009495,-0.00016406,-0.00011118,-0.00000832,-0.01420299
 ,0.01950216,-0.02063998,-0.03428466,-0.04189413,-0.00987679,-0.0569727
 5,-0.10759644,0.06040889,0.01925545,-0.07635817,0.03341419,0.04203565,
 0.42415535,-0.00128405,0.00012520,-0.00139546,-0.00029155,0.00034306,0
 .00029625,0.00059963,-0.00074340,-0.00067954,-0.00264879,-0.00112894,-
 0.00227317,-0.00014681,-0.00169675,-0.00071120,0.00016937,-0.00019267,
 -0.00022609,-0.00022619,-0.00005401,-0.00008125,0.00034911,0.00000081,
 0.00016439,-0.00022288,-0.00036636,-0.00000645,0.00015210,0.00005118,0
 .00001098,-0.02957036,-0.03176777,-0.02284957,0.00654862,0.00086595,0.
 03051349,0.03255620,0.05464808,-0.11378706,-0.07529654,0.03992495,-0.1
 1441975,0.01684429,0.05057437,0.38354993,0.00009443,0.00006274,0.00005
 664,-0.00005544,0.00011572,0.00008915,-0.00005634,0.00011199,0.0000862
 8,-0.00001848,0.00010541,0.00001753,-0.00005424,-0.00045287,-0.0002470
 2,-0.00008276,-0.00041656,-0.00036687,0.00003064,-0.00002852,0.0000075
 7,0.00009683,0.00001022,0.00003819,0.00008583,0.00003933,-0.00002524,0
 .00002428,0.00000341,-0.00003409,-0.00163684,0.00087789,-0.00038639,-0
 .00117000,-0.00077032,0.00039238,-0.02015950,-0.00727090,0.01776219,-0
 .02992881,0.01329274,-0.00989819,-0.15533216,0.05142105,0.05516500,0.2
 0766020,-0.00035370,0.00000139,0.00008257,0.00010814,-0.00006327,-0.00
 002306,0.00011099,-0.00002620,-0.00002781,0.00024954,-0.00008435,0.000
 09614,-0.00009288,-0.00096693,-0.00013986,-0.00010443,-0.00020772,-0.0
 0077010,-0.00001703,-0.00001047,0.00000410,0.00003589,-0.00021977,-0.0
 0003377,0.00003356,-0.00002635,-0.00016016,-0.00001423,-0.00000668,-0.
 00000922,0.00048235,-0.00123227,-0.00066648,-0.00099185,0.00164482,0.0
 0353103,-0.02116205,-0.00290025,0.01163429,0.01220355,0.00078312,0.006
 04913,0.05630228,-0.05711569,-0.03020764,-0.06062013,0.06710126,0.0003
 2909,0.00009371,-0.00019084,0.00008934,-0.00001668,-0.00004239,0.00007
 984,-0.00003529,-0.00007851,-0.00045678,0.00004885,0.00000770,0.000038
 94,-0.00048338,0.00011374,-0.00015504,-0.00033745,-0.00061666,-0.00001
 262,-0.00000612,-0.00000379,0.00003566,-0.00009580,0.00002022,-0.00000
 801,-0.00009551,-0.00016220,-0.00001842,0.00000014,-0.00000116,-0.0013
 7505,0.00419464,0.00104976,0.00092378,-0.00141207,-0.00229405,0.021011
 27,0.00979714,-0.00921371,-0.02423977,0.00590153,-0.00312773,0.0587794
 3,-0.02956086,-0.05607853,-0.06612646,0.02261162,0.07292238,-0.0003620
 5,-0.00020937,-0.00005162,0.00005861,-0.00011136,-0.00003700,0.0000382
 4,-0.00004018,-0.00008867,-0.00026450,-0.00015701,-0.00006692,-0.00001
 517,0.00013659,0.00011038,-0.00001160,0.00016914,0.00009943,-0.0000088
 5,-0.00000067,-0.00000448,0.00001430,-0.00005752,-0.00000486,0.0000069
 1,-0.00002675,-0.00005398,-0.00001203,-0.00000940,0.00000298,-0.000278
 52,0.00077254,-0.00281899,0.00010235,-0.00168337,0.00088255,-0.0030683
 6,-0.01747031,-0.00398028,-0.00721255,-0.01334807,-0.01840151,-0.03409
 376,-0.00111557,-0.00114445,0.00095031,0.01406811,0.01115031,0.0443773
 4,0.00016742,0.00008501,-0.00007463,-0.00002796,0.00008378,0.00011886,
 0.00002611,0.00001699,-0.00003970,-0.00040997,-0.00002362,-0.00023981,
 0.00001904,0.00009747,0.00008557,-0.00001145,-0.00003169,0.00007591,-0
 .00000243,-0.00003958,-0.00000896,0.00002985,-0.00006112,-0.00001329,0
 .00002762,0.00001043,-0.00006775,0.00001708,0.00000101,-0.00003945,0.0
 0018803,-0.00152558,0.00154328,0.00084529,-0.00336516,0.00187979,-0.01
 479164,-0.03135248,-0.00504908,-0.00246469,0.00612600,-0.00618580,-0.0
 0640536,-0.14914381,-0.08256569,0.00372406,-0.00648518,-0.01009406,0.0
 1940796,0.18526891,-0.00038902,-0.00030078,0.00015052,0.00003743,-0.00
 004266,-0.00000878,-0.00005241,0.00014166,0.00007830,0.00036260,0.0000
 0281,0.00016175,-0.00003362,0.00001539,-0.00009360,0.00002245,0.000106
 56,0.00003174,0.00002679,-0.00002424,0.00001296,0.00003071,-0.00003379
 ,0.00003021,0.00001546,-0.00002847,-0.00003394,-0.00000997,-0.00002088
 ,-0.00002442,0.00006847,0.00130666,-0.00418278,-0.00056546,0.00237414,
 -0.00272404,0.00446442,0.00767686,0.01050713,-0.01680325,-0.01711475,-
 0.02282710,-0.00506175,-0.08326666,-0.09748545,0.00349048,-0.01146489,
 -0.00247268,0.01455525,0.10073152,0.11842655,-0.00021168,0.00040062,0.
 00019346,-0.00001507,-0.00009723,-0.00003946,0.00003197,-0.00035660,-0
 .00007400,-0.01035887,0.00455801,0.01428477,0.00017141,0.00008754,0.00
 043794,-0.00011232,-0.00015139,-0.00004359,-0.00008220,-0.00001232,-0.
 00006712,-0.00000691,0.00008599,-0.00001286,-0.00001293,-0.00004961,0.
 00003931,-0.00000846,-0.00001034,0.00004671,0.00273602,-0.00179474,0.0
 0316899,-0.14022250,-0.02597895,0.08260013,-0.03210597,-0.02130025,0.0
 0421406,0.00117648,0.00212380,-0.00104801,-0.00332502,0.00042682,-0.00
 305367,-0.00014807,-0.00037439,0.00032056,-0.00011090,-0.00030476,0.00
 017585,0.18172853,0.00030216,-0.00022540,0.00024469,-0.00022498,0.0000
 9714,0.00014609,0.00015356,0.00006296,0.00007538,0.01564316,-0.0002040
 1,-0.01266933,-0.00029238,-0.00109321,-0.00146388,0.00030386,0.0002182
 2,-0.00007073,0.00006460,0.00010406,-0.00002186,-0.00004341,0.00009167
 ,-0.00011259,-0.00010258,0.00014644,0.00015641,0.00006832,0.00004367,0
 .00003465,-0.00934178,-0.00344678,0.01124663,-0.02626798,-0.03937038,0
 .02442861,-0.01975188,-0.00826689,0.00169340,-0.00056678,-0.00085042,-
 0.00028110,-0.00249021,0.00005435,-0.00061991,-0.00006518,-0.00036748,
 0.00014826,-0.00005560,-0.00002652,0.00018175,0.04287363,0.05319304,0.
 00023542,-0.00051239,-0.00153977,-0.00000531,0.00001894,0.00001257,0.0
 0004828,-0.00008581,-0.00015778,0.01485344,-0.00642078,-0.01023340,-0.
 00052428,-0.00018630,-0.00055386,-0.00002172,0.00019370,-0.00016581,0.
 00005871,-0.00003324,0.00006880,0.00001018,-0.00004648,0.00004203,0.00
 002487,0.00006974,0.00001020,-0.00002150,-0.00002596,-0.00004840,0.012
 15651,0.00925271,-0.01381254,0.08671963,0.02735374,-0.09807718,-0.0101
 5619,-0.00830159,0.01009539,0.00058884,0.00168780,-0.00066211,-0.00260
 976,0.00095276,-0.00428855,0.00007885,-0.00050977,0.00027643,-0.000177
 15,-0.00007560,0.00042998,-0.10084669,-0.02304708,0.11874584,-0.012137
 81,0.01365921,0.00311404,0.00000678,-0.00012676,-0.00030561,-0.0000481
 9,-0.00005223,-0.00006800,-0.00022894,0.00056286,0.00032751,-0.0000816
 6,-0.00007669,-0.00012694,0.00015489,0.00034156,-0.00014965,-0.0000060
 7,0.00005553,-0.00001711,-0.00004385,0.00003702,-0.00005024,0.00000509
 ,-0.00000271,0.00010949,-0.00006596,-0.00008399,0.00004236,-0.17294622
 ,0.06505451,-0.03466054,-0.00217012,0.00528033,-0.00535318,0.00132914,
 -0.00026898,0.00168983,-0.03442910,-0.00767700,-0.01463275,-0.00262204
 ,-0.00252289,0.00142486,-0.00025162,0.00015125,-0.00035894,-0.00014036
 ,0.00001820,-0.00029232,0.00059077,-0.00010442,-0.00016462,0.22276114,
 0.01832728,-0.01053282,-0.00497313,0.00010323,-0.00014883,-0.00007979,
 -0.00007690,0.00004909,0.00003149,0.00044735,-0.00139951,-0.00014670,0
 .00011504,-0.00009764,0.00025853,-0.00045755,-0.00107661,-0.00011931,0
 .00000248,-0.00003188,-0.00000376,-0.00000607,0.00008811,0.00008251,-0
 .00000563,0.00000192,-0.00000594,0.00005443,0.00005497,-0.00002656,0.0
 6936568,-0.06068177,0.02147240,0.01135076,-0.00541370,0.00813423,0.000
 86653,-0.00024727,0.00166338,-0.02253085,0.00366470,-0.01191960,-0.002
 64527,-0.00453822,0.00281498,-0.00010300,0.00014034,-0.00070664,-0.000
 29021,0.00039687,-0.00021172,-0.00009882,0.00012189,0.00018701,-0.0741
 7409,0.08009658,0.01421089,-0.00913375,0.00187308,0.00012014,0.0001795
 0,0.00007921,-0.00021529,0.00013839,0.00009360,0.00012716,0.00058215,-
 0.00034833,0.00033033,0.00007982,0.00011959,-0.00006087,-0.00155305,-0
 .00055398,0.00007021,0.00006028,0.00002475,-0.00010690,0.00015635,0.00
 009948,-0.00001144,-0.00008942,0.00011986,0.00007602,0.00001343,0.0001
 0169,-0.03580210,0.01907987,-0.04404122,-0.01543418,0.00993207,-0.0069
 4005,-0.00109878,-0.00051133,-0.00141723,-0.01011408,-0.00368764,0.000
 48637,-0.00127036,0.00083919,-0.00039896,-0.00007666,-0.00004125,-0.00
 012786,0.00001706,0.00003782,0.00003597,-0.00018600,0.00026391,0.00002
 579,0.04947325,-0.01606081,0.05081073,-0.02718424,-0.00310605,-0.00783
 900,-0.19263896,0.06016690,-0.02193572,-0.00408647,0.00669740,-0.00711
 821,-0.00066596,-0.00015812,-0.00073168,-0.00007698,0.00015437,-0.0000
 0682,-0.00042495,-0.00050598,-0.00095091,-0.00005651,0.00012115,0.0000
 7928,-0.00000520,0.00011589,0.00000973,-0.00003379,-0.00001885,0.00003
 458,-0.01207980,0.00879997,0.00551563,0.00017208,-0.00064172,-0.000368
 46,-0.00015082,-0.00024815,-0.00015390,0.00012827,0.00017639,0.0001195
 3,0.00019517,0.00044556,0.00032840,-0.00011798,0.00005481,-0.00000690,
 -0.00002673,-0.00000448,-0.00001001,0.00001612,-0.00003541,-0.00001350
 ,0.00009954,0.00001285,-0.00002797,0.00022163,-0.00024256,-0.00004929,
 0.23588342,-0.01812333,0.00413136,-0.00251279,0.06114973,-0.05929615,0
 .00938899,0.01696501,-0.00987569,0.00919773,-0.00011840,-0.00021828,0.
 00025312,-0.00029235,0.00020405,-0.00008075,-0.00076389,-0.00110694,-0
 .00142440,0.00030766,-0.00081106,0.00143794,0.00013465,0.00014162,0.00
 010138,0.00001724,0.00009503,-0.00003165,0.01286697,-0.00230788,-0.003
 82947,-0.00062381,0.00004567,-0.00004320,-0.00005256,0.00005836,-0.000
 03663,0.00011010,-0.00005857,0.00000628,0.00024081,0.00007473,0.000163
 02,-0.00009594,0.00010005,-0.00008757,-0.00000782,0.00002420,0.0000332
 1,0.00001350,-0.00000590,-0.00000074,-0.00000246,-0.00000756,-0.000037
 09,-0.00008102,-0.00036279,-0.00030097,-0.07168128,0.06887978,-0.01189
 315,-0.00233990,-0.00012962,-0.01904436,0.00894815,-0.03548131,-0.0174
 2471,0.01378831,-0.00770393,-0.00063560,-0.00001349,-0.00089679,-0.000
 07223,0.00015583,-0.00017099,0.00024569,-0.00021578,-0.00063607,-0.000
 33018,0.00089251,-0.00158832,-0.00000312,0.00007905,0.00002066,0.00000
 560,-0.00004083,0.00007099,0.01699497,-0.00865823,0.00017475,-0.000853
 44,-0.00097086,-0.00024736,-0.00026396,-0.00015925,-0.00039773,0.00025
 296,0.00013500,0.00002777,0.00034404,0.00021841,0.00006728,-0.00009881
 ,0.00003045,0.00004074,-0.00002477,0.00000967,0.00000896,0.00000313,-0
 .00002867,-0.00001711,-0.00001568,-0.00000909,-0.00007455,0.00001214,-
 0.00037772,-0.00004133,0.03310311,-0.01207188,0.04680669,-0.00047817,-
 0.00062660,0.00007231,0.00219160,-0.00323073,0.00387887,-0.16478470,-0
 .02078848,0.08115060,-0.02514962,-0.01152361,0.00473933,-0.00044571,-0
 .00119444,-0.00019373,-0.00008063,0.00004414,0.00015535,-0.01238078,0.
 00590908,0.01010818,-0.00003399,0.00001297,0.00000089,0.00002358,0.000
 05437,0.00010398,-0.00006757,0.00046290,-0.00027979,-0.00011830,-0.000
 15954,-0.00015430,0.00022700,-0.00041359,-0.00038236,0.000