 Default is to use a total of   8 processors:
                                8 via shared-memory
                                1 via Linda
 Entering Link 1 = C:\G16W\l1.exe PID=     23076.
  
 Copyright (c) 1988-2019, Gaussian, Inc.  All Rights Reserved.
  
 This is part of the Gaussian(R) 16 program.  It is based on
 the Gaussian(R) 09 system (copyright 2009, Gaussian, Inc.),
 the Gaussian(R) 03 system (copyright 2003, Gaussian, Inc.),
 the Gaussian(R) 98 system (copyright 1998, Gaussian, Inc.),
 the Gaussian(R) 94 system (copyright 1995, Gaussian, Inc.),
 the Gaussian 92(TM) system (copyright 1992, Gaussian, Inc.),
 the Gaussian 90(TM) system (copyright 1990, Gaussian, Inc.),
 the Gaussian 88(TM) system (copyright 1988, Gaussian, Inc.),
 the Gaussian 86(TM) system (copyright 1986, Carnegie Mellon
 University), and the Gaussian 82(TM) system (copyright 1983,
 Carnegie Mellon University). Gaussian is a federally registered
 trademark of Gaussian, Inc.
  
 This software contains proprietary and confidential information,
 including trade secrets, belonging to Gaussian, Inc.
  
 This software is provided under written license and may be
 used, copied, transmitted, or stored only in accord with that
 written license.
  
 The following legend is applicable only to US Government
 contracts under FAR:
  
                    RESTRICTED RIGHTS LEGEND
  
 Use, reproduction and disclosure by the US Government is
 subject to restrictions as set forth in subparagraphs (a)
 and (c) of the Commercial Computer Software - Restricted
 Rights clause in FAR 52.227-19.
  
 Gaussian, Inc.
 340 Quinnipiac St., Bldg. 40, Wallingford CT 06492
  
  
 ---------------------------------------------------------------
 Warning -- This program may not be used in any manner that
 competes with the business of Gaussian, Inc. or will provide
 assistance to any competitor of Gaussian, Inc.  The licensee
 of this program is prohibited from giving any competitor of
 Gaussian, Inc. access to this program.  By using this program,
 the user acknowledges that Gaussian, Inc. is engaged in the
 business of creating and licensing software in the field of
 computational chemistry and represents and warrants to the
 licensee that it is not a competitor of Gaussian, Inc. and that
 it will not use this program in any manner prohibited above.
 ---------------------------------------------------------------
  

 Cite this work as:
 Gaussian 16, Revision C.01,
 M. J. Frisch, G. W. Trucks, H. B. Schlegel, G. E. Scuseria, 
 M. A. Robb, J. R. Cheeseman, G. Scalmani, V. Barone, 
 G. A. Petersson, H. Nakatsuji, X. Li, M. Caricato, A. V. Marenich, 
 J. Bloino, B. G. Janesko, R. Gomperts, B. Mennucci, H. P. Hratchian, 
 J. V. Ortiz, A. F. Izmaylov, J. L. Sonnenberg, D. Williams-Young, 
 F. Ding, F. Lipparini, F. Egidi, J. Goings, B. Peng, A. Petrone, 
 T. Henderson, D. Ranasinghe, V. G. Zakrzewski, J. Gao, N. Rega, 
 G. Zheng, W. Liang, M. Hada, M. Ehara, K. Toyota, R. Fukuda, 
 J. Hasegawa, M. Ishida, T. Nakajima, Y. Honda, O. Kitao, H. Nakai, 
 T. Vreven, K. Throssell, J. A. Montgomery, Jr., J. E. Peralta, 
 F. Ogliaro, M. J. Bearpark, J. J. Heyd, E. N. Brothers, K. N. Kudin, 
 V. N. Staroverov, T. A. Keith, R. Kobayashi, J. Normand, 
 K. Raghavachari, A. P. Rendell, J. C. Burant, S. S. Iyengar, 
 J. Tomasi, M. Cossi, J. M. Millam, M. Klene, C. Adamo, R. Cammi, 
 J. W. Ochterski, R. L. Martin, K. Morokuma, O. Farkas, 
 J. B. Foresman, and D. J. Fox, Gaussian, Inc., Wallingford CT, 2019.
 
 ******************************************
 Gaussian 16:  EM64W-G16RevC.01 30-May-2019
                13-Nov-2025 
 ******************************************
 %chk=C:\Users\al6323\OneDrive - Imperial College London\Desktop\TSR20251113\Prod
 uct_PM6_endo.chk
 Default route: MaxDisk=10GB
 ----------------------------------------------------------------------
 # opt=(calcfc,tight,maxcycles=200,maxstep=4) freq pm6 nosymm geom=conn
 ectivity scf=(xqc,tight)
 ----------------------------------------------------------------------
 1/6=200,7=10,8=4,10=4,18=20,19=15,26=1,38=1,57=2/1,3;
 2/9=110,12=2,15=1,17=6,18=5,40=1/2;
 3/5=2,25=1,41=3900000,71=2,140=1/1,2,3;
 4/35=1/1;
 5/5=2,8=3,13=1,32=2,35=1,38=5/2,8;
 8/6=4,10=90,11=11/1;
 11/6=1,8=1,9=11,15=111,16=1,31=1/1,2,10;
 10/6=1,13=1,31=1/2;
 6/7=2,8=2,9=2,10=2,28=1/1;
 7/10=1,25=1,30=1/1,2,3,16;
 1/6=200,7=10,8=4,10=4,18=20,19=15,26=1/3(2);
 2/9=110,15=1/2;
 99//99;
 2/9=110,15=1/2;
 3/5=2,25=1,41=3900000,71=1,135=20/1,2,3;
 4/5=5,16=3,35=1/1;
 5/5=2,8=3,13=1,32=2,35=1,38=5/2,8;
 7/30=1/1,2,3,16;
 1/6=200,7=10,8=4,18=20,19=15,26=1/3(-5);
 2/9=110,15=1/2;
 6/7=2,8=2,9=2,10=2,19=2,28=1/1;
 99/9=1/99;
 ------------------
 TS(Berny)_PM6_endo
 ------------------
 Symbolic Z-matrix:
 Charge =  0 Multiplicity = 1
 C                    -0.33843   0.39792   0.36456 
 C                     0.43652   1.43732   1.21665 
 C                     0.71363   2.37945   0.03528 
 C                    -0.27725   1.62937  -0.83139 
 C                    -1.80569   1.66093  -0.61842 
 C                    -1.85761   0.63681   0.29497 
 H                     1.39478   3.18372  -0.14932 
 H                    -2.57219   2.27142  -1.04816 
 H                    -2.67814   0.16874   0.79749 
 H                     0.61767   1.50606   2.26897 
 C                     0.40564  -0.50536  -0.59375 
 C                     0.23676   0.47317  -1.73855 
 O                    -0.8126   -0.05988  -2.54347 
 O                    -0.22644  -1.69789  -0.99839 
 C                    -1.373    -1.02287  -1.61113 
 H                    -1.93349  -0.51475  -0.85445 
 H                    -2.01501  -1.71598  -2.11346 
 H                     1.07977   0.65241  -2.37266 
 H                     1.38933  -0.67774  -0.20964 
 

 GradGradGradGradGradGradGradGradGradGradGradGradGradGradGradGradGradGrad
 Berny optimization.
 Initialization pass.
                           ----------------------------
                           !    Initial Parameters    !
                           ! (Angstroms and Degrees)  !
 --------------------------                            --------------------------
 ! Name  Definition              Value          Derivative Info.                !
 --------------------------------------------------------------------------------
 ! R1    R(1,2)                  1.5514         calculate D2E/DX2 analytically  !
 ! R2    R(1,6)                  1.5394         calculate D2E/DX2 analytically  !
 ! R3    R(1,11)                 1.5126         calculate D2E/DX2 analytically  !
 ! R4    R(2,3)                  1.5362         calculate D2E/DX2 analytically  !
 ! R5    R(2,10)                 1.07           calculate D2E/DX2 analytically  !
 ! R6    R(3,4)                  1.5151         calculate D2E/DX2 analytically  !
 ! R7    R(3,7)                  1.07           calculate D2E/DX2 analytically  !
 ! R8    R(4,5)                  1.5435         calculate D2E/DX2 analytically  !
 ! R9    R(4,12)                 1.5569         calculate D2E/DX2 analytically  !
 ! R10   R(5,6)                  1.3732         calculate D2E/DX2 analytically  !
 ! R11   R(5,8)                  1.07           calculate D2E/DX2 analytically  !
 ! R12   R(6,9)                  1.07           calculate D2E/DX2 analytically  !
 ! R13   R(11,12)                1.5155         calculate D2E/DX2 analytically  !
 ! R14   R(11,14)                1.409          calculate D2E/DX2 analytically  !
 ! R15   R(11,19)                1.07           calculate D2E/DX2 analytically  !
 ! R16   R(12,13)                1.4259         calculate D2E/DX2 analytically  !
 ! R17   R(12,18)                1.07           calculate D2E/DX2 analytically  !
 ! R18   R(13,15)                1.4528         calculate D2E/DX2 analytically  !
 ! R19   R(14,15)                1.4648         calculate D2E/DX2 analytically  !
 ! R20   R(15,16)                1.07           calculate D2E/DX2 analytically  !
 ! R21   R(15,17)                1.07           calculate D2E/DX2 analytically  !
 ! A1    A(2,1,6)              114.4441         calculate D2E/DX2 analytically  !
 ! A2    A(2,1,11)             120.1544         calculate D2E/DX2 analytically  !
 ! A3    A(6,1,11)             123.3312         calculate D2E/DX2 analytically  !
 ! A4    A(1,2,3)               94.5086         calculate D2E/DX2 analytically  !
 ! A5    A(1,2,10)             131.8936         calculate D2E/DX2 analytically  !
 ! A6    A(3,2,10)             133.3424         calculate D2E/DX2 analytically  !
 ! A7    A(2,3,4)               91.0489         calculate D2E/DX2 analytically  !
 ! A8    A(2,3,7)              135.1099         calculate D2E/DX2 analytically  !
 ! A9    A(4,3,7)              133.6116         calculate D2E/DX2 analytically  !
 ! A10   A(3,4,5)              123.9559         calculate D2E/DX2 analytically  !
 ! A11   A(3,4,12)             119.0144         calculate D2E/DX2 analytically  !
 ! A12   A(5,4,12)             114.9927         calculate D2E/DX2 analytically  !
 ! A13   A(4,5,6)               96.5437         calculate D2E/DX2 analytically  !
 ! A14   A(4,5,8)              131.7288         calculate D2E/DX2 analytically  !
 ! A15   A(6,5,8)              131.7246         calculate D2E/DX2 analytically  !
 ! A16   A(1,6,5)               96.2282         calculate D2E/DX2 analytically  !
 ! A17   A(1,6,9)              131.8863         calculate D2E/DX2 analytically  !
 ! A18   A(5,6,9)              131.8828         calculate D2E/DX2 analytically  !
 ! A19   A(1,11,12)             92.1885         calculate D2E/DX2 analytically  !
 ! A20   A(1,11,14)            117.8192         calculate D2E/DX2 analytically  !
 ! A21   A(1,11,19)            108.7244         calculate D2E/DX2 analytically  !
 ! A22   A(12,11,14)           106.2334         calculate D2E/DX2 analytically  !
 ! A23   A(12,11,19)           118.5329         calculate D2E/DX2 analytically  !
 ! A24   A(14,11,19)           112.2806         calculate D2E/DX2 analytically  !
 ! A25   A(4,12,11)             94.3668         calculate D2E/DX2 analytically  !
 ! A26   A(4,12,13)            111.3198         calculate D2E/DX2 analytically  !
 ! A27   A(4,12,18)            118.7522         calculate D2E/DX2 analytically  !
 ! A28   A(11,12,13)           105.4894         calculate D2E/DX2 analytically  !
 ! A29   A(11,12,18)           117.9071         calculate D2E/DX2 analytically  !
 ! A30   A(13,12,18)           107.9327         calculate D2E/DX2 analytically  !
 ! A31   A(12,13,15)            99.7534         calculate D2E/DX2 analytically  !
 ! A32   A(11,14,15)            94.6601         calculate D2E/DX2 analytically  !
 ! A33   A(13,15,14)           105.7816         calculate D2E/DX2 analytically  !
 ! A34   A(13,15,16)           109.945          calculate D2E/DX2 analytically  !
 ! A35   A(13,15,17)           111.0717         calculate D2E/DX2 analytically  !
 ! A36   A(14,15,16)           109.4526         calculate D2E/DX2 analytically  !
 ! A37   A(14,15,17)           111.5629         calculate D2E/DX2 analytically  !
 ! A38   A(16,15,17)           108.9838         calculate D2E/DX2 analytically  !
 ! D1    D(6,1,2,3)            -90.9814         calculate D2E/DX2 analytically  !
 ! D2    D(6,1,2,10)            83.6667         calculate D2E/DX2 analytically  !
 ! D3    D(11,1,2,3)            73.1962         calculate D2E/DX2 analytically  !
 ! D4    D(11,1,2,10)         -112.1557         calculate D2E/DX2 analytically  !
 ! D5    D(2,1,6,5)             77.3554         calculate D2E/DX2 analytically  !
 ! D6    D(2,1,6,9)           -102.0856         calculate D2E/DX2 analytically  !
 ! D7    D(11,1,6,5)           -86.2545         calculate D2E/DX2 analytically  !
 ! D8    D(11,1,6,9)            94.3044         calculate D2E/DX2 analytically  !
 ! D9    D(2,1,11,12)          -91.246          calculate D2E/DX2 analytically  !
 ! D10   D(2,1,11,14)          159.0915         calculate D2E/DX2 analytically  !
 ! D11   D(2,1,11,19)           29.9306         calculate D2E/DX2 analytically  !
 ! D12   D(6,1,11,12)           71.4713         calculate D2E/DX2 analytically  !
 ! D13   D(6,1,11,14)          -38.1911         calculate D2E/DX2 analytically  !
 ! D14   D(6,1,11,19)         -167.352          calculate D2E/DX2 analytically  !
 ! D15   D(1,2,3,4)             12.2749         calculate D2E/DX2 analytically  !
 ! D16   D(1,2,3,7)           -162.5315         calculate D2E/DX2 analytically  !
 ! D17   D(10,2,3,4)          -162.2468         calculate D2E/DX2 analytically  !
 ! D18   D(10,2,3,7)            22.9468         calculate D2E/DX2 analytically  !
 ! D19   D(2,3,4,5)             70.0914         calculate D2E/DX2 analytically  !
 ! D20   D(2,3,4,12)           -92.84           calculate D2E/DX2 analytically  !
 ! D21   D(7,3,4,5)           -114.9707         calculate D2E/DX2 analytically  !
 ! D22   D(7,3,4,12)            82.0978         calculate D2E/DX2 analytically  !
 ! D23   D(3,4,5,6)            -86.5084         calculate D2E/DX2 analytically  !
 ! D24   D(3,4,5,8)             94.0755         calculate D2E/DX2 analytically  !
 ! D25   D(12,4,5,6)            77.0405         calculate D2E/DX2 analytically  !
 ! D26   D(12,4,5,8)          -102.3756         calculate D2E/DX2 analytically  !
 ! D27   D(3,4,12,11)           75.2324         calculate D2E/DX2 analytically  !
 ! D28   D(3,4,12,13)         -176.2669         calculate D2E/DX2 analytically  !
 ! D29   D(3,4,12,18)          -50.0293         calculate D2E/DX2 analytically  !
 ! D30   D(5,4,12,11)          -89.1858         calculate D2E/DX2 analytically  !
 ! D31   D(5,4,12,13)           19.315          calculate D2E/DX2 analytically  !
 ! D32   D(5,4,12,18)          145.5525         calculate D2E/DX2 analytically  !
 ! D33   D(4,5,6,1)              2.7273         calculate D2E/DX2 analytically  !
 ! D34   D(4,5,6,9)           -177.8316         calculate D2E/DX2 analytically  !
 ! D35   D(8,5,6,1)           -177.8566         calculate D2E/DX2 analytically  !
 ! D36   D(8,5,6,9)              1.5845         calculate D2E/DX2 analytically  !
 ! D37   D(1,11,12,4)           11.0342         calculate D2E/DX2 analytically  !
 ! D38   D(1,11,12,13)        -102.515          calculate D2E/DX2 analytically  !
 ! D39   D(1,11,12,18)         136.9328         calculate D2E/DX2 analytically  !
 ! D40   D(14,11,12,4)         130.8718         calculate D2E/DX2 analytically  !
 ! D41   D(14,11,12,13)         17.3226         calculate D2E/DX2 analytically  !
 ! D42   D(14,11,12,18)       -103.2297         calculate D2E/DX2 analytically  !
 ! D43   D(19,11,12,4)        -101.699          calculate D2E/DX2 analytically  !
 ! D44   D(19,11,12,13)        144.7518         calculate D2E/DX2 analytically  !
 ! D45   D(19,11,12,18)         24.1996         calculate D2E/DX2 analytically  !
 ! D46   D(1,11,14,15)          60.5709         calculate D2E/DX2 analytically  !
 ! D47   D(12,11,14,15)        -40.8846         calculate D2E/DX2 analytically  !
 ! D48   D(19,11,14,15)       -171.9513         calculate D2E/DX2 analytically  !
 ! D49   D(4,12,13,15)         -85.5881         calculate D2E/DX2 analytically  !
 ! D50   D(11,12,13,15)         15.5382         calculate D2E/DX2 analytically  !
 ! D51   D(18,12,13,15)        142.4197         calculate D2E/DX2 analytically  !
 ! D52   D(12,13,15,14)        -43.6731         calculate D2E/DX2 analytically  !
 ! D53   D(12,13,15,16)         74.4076         calculate D2E/DX2 analytically  !
 ! D54   D(12,13,15,17)       -164.8835         calculate D2E/DX2 analytically  !
 ! D55   D(11,14,15,13)         53.4011         calculate D2E/DX2 analytically  !
 ! D56   D(11,14,15,16)        -65.0077         calculate D2E/DX2 analytically  !
 ! D57   D(11,14,15,17)        174.2932         calculate D2E/DX2 analytically  !
 --------------------------------------------------------------------------------
 Trust Radius=4.00D-02 FncErr=1.00D-07 GrdErr=1.00D-07 EigMax=2.50D+02 EigMin=1.00D-04
 Number of steps in this run=    114 maximum allowed number of steps=    114.
 GradGradGradGradGradGradGradGradGradGradGradGradGradGradGradGradGradGrad

                          Input orientation:                          
 ---------------------------------------------------------------------
 Center     Atomic      Atomic             Coordinates (Angstroms)
 Number     Number       Type             X           Y           Z
 ---------------------------------------------------------------------
      1          6           0       -0.338428    0.397923    0.364565
      2          6           0        0.436525    1.437323    1.216653
      3          6           0        0.713629    2.379450    0.035277
      4          6           0       -0.277253    1.629366   -0.831390
      5          6           0       -1.805687    1.660929   -0.618420
      6          6           0       -1.857606    0.636810    0.294967
      7          1           0        1.394783    3.183723   -0.149318
      8          1           0       -2.572188    2.271416   -1.048165
      9          1           0       -2.678140    0.168738    0.797492
     10          1           0        0.617671    1.506062    2.268965
     11          6           0        0.405644   -0.505356   -0.593747
     12          6           0        0.236757    0.473170   -1.738554
     13          8           0       -0.812596   -0.059883   -2.543466
     14          8           0       -0.226443   -1.697887   -0.998385
     15          6           0       -1.373000   -1.022871   -1.611130
     16          1           0       -1.933492   -0.514753   -0.854450
     17          1           0       -2.015008   -1.715976   -2.113455
     18          1           0        1.079774    0.652407   -2.372664
     19          1           0        1.389332   -0.677744   -0.209638
 ---------------------------------------------------------------------
                    Distance matrix (angstroms):
                    1          2          3          4          5
     1  C    0.000000
     2  C    1.551438   0.000000
     3  C    2.267533   1.536242   0.000000
     4  C    1.717702   2.177347   1.515119   0.000000
     5  C    2.171241   2.906029   2.700101   1.543522   0.000000
     6  C    1.539419   2.598723   3.116967   2.179761   1.373241
     7  H    3.320960   2.415377   1.070000   2.382636   3.575187
     8  H    3.239670   3.857132   3.461519   2.392895   1.070000
     9  H    2.390440   3.389121   4.119748   3.248222   2.234416
    10  H    2.401841   1.070000   2.400287   3.229287   3.772750
    11  C    1.512587   2.655655   2.968608   2.253854   3.095704
    12  C    2.181653   3.114923   2.647223   1.556901   2.614775
    13  O    2.981789   4.235614   3.863888   2.464013   2.766446
    14  O    2.502518   3.895570   4.310090   3.331829   3.730956
    15  C    2.644308   4.162126   4.317461   2.973721   2.894041
    16  H    2.205267   3.703653   4.021850   2.709410   2.192176
    17  H    3.663342   5.200282   5.369826   3.981808   3.698977
    18  H    3.093296   3.730021   2.985786   2.274092   3.524255
    19  H    2.114693   2.723171   3.140541   2.913218   3.980533
                    6          7          8          9         10
     6  C    0.000000
     7  H    4.154779   0.000000
     8  H    2.233062   4.168584   0.000000
     9  H    1.070000   5.155122   2.799809   0.000000
    10  H    3.283179   3.044100   4.665225   3.849161   0.000000
    11  C    2.686383   3.845154   4.096882   3.449590   3.505122
    12  C    2.923754   3.348700   3.405950   3.875672   4.155981
    13  O    3.103889   4.596243   3.281318   3.833343   5.259025
    14  O    3.127981   5.213387   4.610897   3.566551   4.653321
    15  C    2.573439   5.243372   3.550678   2.987437   5.041172
    16  H    1.628808   5.025271   2.864995   1.936640   4.510859
    17  H    3.370590   6.284231   4.164684   3.530652   6.043024
    18  H    3.967959   3.383793   4.208600   4.940217   4.742044
    19  H    3.539108   3.861942   5.009423   4.274947   3.392336
                   11         12         13         14         15
    11  C    0.000000
    12  C    1.515460   0.000000
    13  O    2.341785   1.425893   0.000000
    14  O    1.409041   2.340062   2.326780   0.000000
    15  C    2.113401   2.201293   1.452807   1.464819   0.000000
    16  H    2.353638   2.543150   2.077520   2.081956   1.070000
    17  H    3.103977   3.162808   2.091255   2.107766   1.070000
    18  H    2.226973   1.070000   2.029187   3.019723   3.066365
    19  H    1.070000   2.233969   3.267567   2.067255   3.116692
                   16         17         18         19
    16  H    0.000000
    17  H    1.742032   0.000000
    18  H    3.570295   3.905651   0.000000
    19  H    3.388733   4.036333   2.558087   0.000000
 Symmetry turned off by external request.
 Stoichiometry    C9H8O2
 Framework group  C1[X(C9H8O2)]
 Deg. of freedom    51
 Full point group                 C1      NOp   1
 Rotational constants (GHZ):           2.2546344           1.2634051           1.2099014
 Standard basis: VSTO-6G (5D, 7F)
    52 basis functions,   312 primitive gaussians,    52 cartesian basis functions
    28 alpha electrons       28 beta electrons
       nuclear repulsion energy       352.4976266487 Hartrees.
 Integral buffers will be    131072 words long.
 Regular integral format.
 Two-electron integral symmetry is turned off.
 Do NDO integrals.
 One-electron integrals computed using PRISM.
 NBasis=    52 RedAO= F EigKep=  0.00D+00  NBF=    52
 NBsUse=    52 1.00D-04 EigRej=  0.00D+00 NBFU=    52
 Simple Huckel Guess.
 Keep J ints in memory in canonical form, NReq=867036.
 Overlap will be assumed to be unity.
 Requested convergence on RMS density matrix=1.00D-08 within  32 cycles.
 Requested convergence on MAX density matrix=1.00D-06.
 Requested convergence on             energy=1.00D-06.
 No special actions if energy rises.
 SCF Done:  E(RPM6) =  0.187995395108     A.U. after   17 cycles
            NFock= 16  Conv=0.82D-08     -V/T= 1.0018
 QCSCF skips out because SCF is already converged.
 Range of M.O.s used for correlation:     1    52
 NBasis=    52 NAE=    28 NBE=    28 NFC=     0 NFV=     0
 NROrb=     52 NOA=    28 NOB=    28 NVA=    24 NVB=    24
 Symmetrizing basis deriv contribution to polar:
 IMax=3 JMax=2 DiffMx= 0.00D+00
 G2DrvN: will do    20 centers at a time, making    1 passes.
 Calling FoFCou, ICntrl=  3107 FMM=F I1Cent=   0 AccDes= 0.00D+00.
 End of G2Drv F.D. properties file   721 does not exist.
 End of G2Drv F.D. properties file   722 does not exist.
 End of G2Drv F.D. properties file   788 does not exist.
          IDoAtm=1111111111111111111
          Differentiating once with respect to nuclear coordinates.
          Electric field/nuclear overlap derivatives assumed to be zero.
 Keep J ints in memory in canonical form, NReq=869000.
          There are    60 degrees of freedom in the 1st order CPHF.  IDoFFX=5 NUNeed=    60.
 LinEq1:  Iter=  0 NonCon=    57 RMS=1.26D-02 Max=7.89D-02 NDo=    57
 AX will form    60 AO Fock derivatives at one time.
 LinEq1:  Iter=  1 NonCon=    57 RMS=1.69D-03 Max=1.22D-02 NDo=    60
 LinEq1:  Iter=  2 NonCon=    57 RMS=3.72D-04 Max=3.66D-03 NDo=    60
 LinEq1:  Iter=  3 NonCon=    57 RMS=1.03D-04 Max=1.23D-03 NDo=    60
 LinEq1:  Iter=  4 NonCon=    57 RMS=2.49D-05 Max=2.59D-04 NDo=    60
 LinEq1:  Iter=  5 NonCon=    57 RMS=7.17D-06 Max=5.87D-05 NDo=    60
 LinEq1:  Iter=  6 NonCon=    57 RMS=1.44D-06 Max=1.05D-05 NDo=    60
 LinEq1:  Iter=  7 NonCon=    57 RMS=2.48D-07 Max=2.39D-06 NDo=    60
 LinEq1:  Iter=  8 NonCon=    34 RMS=5.12D-08 Max=4.15D-07 NDo=    60
 LinEq1:  Iter=  9 NonCon=     0 RMS=8.47D-09 Max=6.24D-08 NDo=    34
 Linear equations converged to 1.000D-08 1.000D-07 after     9 iterations.
 End of Minotr F.D. properties file   721 does not exist.
 End of Minotr F.D. properties file   722 does not exist.
 End of Minotr F.D. properties file   788 does not exist.

 **********************************************************************

            Population analysis using the SCF Density.

 **********************************************************************

 Alpha  occ. eigenvalues --   -1.24457  -1.12931  -1.07463  -1.01557  -0.93679
 Alpha  occ. eigenvalues --   -0.89826  -0.85655  -0.78262  -0.76350  -0.74058
 Alpha  occ. eigenvalues --   -0.67141  -0.65490  -0.64045  -0.60527  -0.58899
 Alpha  occ. eigenvalues --   -0.56207  -0.55577  -0.53544  -0.50972  -0.49651
 Alpha  occ. eigenvalues --   -0.47596  -0.47147  -0.44891  -0.42400  -0.40356
 Alpha  occ. eigenvalues --   -0.36451  -0.35567  -0.34666
 Alpha virt. eigenvalues --   -0.01054   0.00938   0.03423   0.06499   0.07071
 Alpha virt. eigenvalues --    0.09594   0.10191   0.10982   0.11510   0.12290
 Alpha virt. eigenvalues --    0.12897   0.13341   0.13677   0.14645   0.16115
 Alpha virt. eigenvalues --    0.18014   0.18938   0.19622   0.19885   0.20053
 Alpha virt. eigenvalues --    0.20604   0.21074   0.21198   0.21691
          Condensed to atoms (all electrons):
               1          2          3          4          5          6
     1  C    4.119517   0.000000   0.000000   0.000000   0.000000   0.000000
     2  C    0.000000   4.118565   0.000000   0.000000   0.000000   0.000000
     3  C    0.000000   0.000000   4.168894   0.000000   0.000000   0.000000
     4  C    0.000000   0.000000   0.000000   4.054208   0.000000   0.000000
     5  C    0.000000   0.000000   0.000000   0.000000   4.118414   0.000000
     6  C    0.000000   0.000000   0.000000   0.000000   0.000000   4.173625
     7  H    0.000000   0.000000   0.000000   0.000000   0.000000   0.000000
     8  H    0.000000   0.000000   0.000000   0.000000   0.000000   0.000000
     9  H    0.000000   0.000000   0.000000   0.000000   0.000000   0.000000
    10  H    0.000000   0.000000   0.000000   0.000000   0.000000   0.000000
    11  C    0.000000   0.000000   0.000000   0.000000   0.000000   0.000000
    12  C    0.000000   0.000000   0.000000   0.000000   0.000000   0.000000
    13  O    0.000000   0.000000   0.000000   0.000000   0.000000   0.000000
    14  O    0.000000   0.000000   0.000000   0.000000   0.000000   0.000000
    15  C    0.000000   0.000000   0.000000   0.000000   0.000000   0.000000
    16  H    0.000000   0.000000   0.000000   0.000000   0.000000   0.000000
    17  H    0.000000   0.000000   0.000000   0.000000   0.000000   0.000000
    18  H    0.000000   0.000000   0.000000   0.000000   0.000000   0.000000
    19  H    0.000000   0.000000   0.000000   0.000000   0.000000   0.000000
               7          8          9         10         11         12
     1  C    0.000000   0.000000   0.000000   0.000000   0.000000   0.000000
     2  C    0.000000   0.000000   0.000000   0.000000   0.000000   0.000000
     3  C    0.000000   0.000000   0.000000   0.000000   0.000000   0.000000
     4  C    0.000000   0.000000   0.000000   0.000000   0.000000   0.000000
     5  C    0.000000   0.000000   0.000000   0.000000   0.000000   0.000000
     6  C    0.000000   0.000000   0.000000   0.000000   0.000000   0.000000
     7  H    0.832780   0.000000   0.000000   0.000000   0.000000   0.000000
     8  H    0.000000   0.834674   0.000000   0.000000   0.000000   0.000000
     9  H    0.000000   0.000000   0.833127   0.000000   0.000000   0.000000
    10  H    0.000000   0.000000   0.000000   0.840764   0.000000   0.000000
    11  C    0.000000   0.000000   0.000000   0.000000   3.924284   0.000000
    12  C    0.000000   0.000000   0.000000   0.000000   0.000000   3.928524
    13  O    0.000000   0.000000   0.000000   0.000000   0.000000   0.000000
    14  O    0.000000   0.000000   0.000000   0.000000   0.000000   0.000000
    15  C    0.000000   0.000000   0.000000   0.000000   0.000000   0.000000
    16  H    0.000000   0.000000   0.000000   0.000000   0.000000   0.000000
    17  H    0.000000   0.000000   0.000000   0.000000   0.000000   0.000000
    18  H    0.000000   0.000000   0.000000   0.000000   0.000000   0.000000
    19  H    0.000000   0.000000   0.000000   0.000000   0.000000   0.000000
              13         14         15         16         17         18
     1  C    0.000000   0.000000   0.000000   0.000000   0.000000   0.000000
     2  C    0.000000   0.000000   0.000000   0.000000   0.000000   0.000000
     3  C    0.000000   0.000000   0.000000   0.000000   0.000000   0.000000
     4  C    0.000000   0.000000   0.000000   0.000000   0.000000   0.000000
     5  C    0.000000   0.000000   0.000000   0.000000   0.000000   0.000000
     6  C    0.000000   0.000000   0.000000   0.000000   0.000000   0.000000
     7  H    0.000000   0.000000   0.000000   0.000000   0.000000   0.000000
     8  H    0.000000   0.000000   0.000000   0.000000   0.000000   0.000000
     9  H    0.000000   0.000000   0.000000   0.000000   0.000000   0.000000
    10  H    0.000000   0.000000   0.000000   0.000000   0.000000   0.000000
    11  C    0.000000   0.000000   0.000000   0.000000   0.000000   0.000000
    12  C    0.000000   0.000000   0.000000   0.000000   0.000000   0.000000
    13  O    6.406566   0.000000   0.000000   0.000000   0.000000   0.000000
    14  O    0.000000   6.378863   0.000000   0.000000   0.000000   0.000000
    15  C    0.000000   0.000000   3.871654   0.000000   0.000000   0.000000
    16  H    0.000000   0.000000   0.000000   0.848545   0.000000   0.000000
    17  H    0.000000   0.000000   0.000000   0.000000   0.859353   0.000000
    18  H    0.000000   0.000000   0.000000   0.000000   0.000000   0.847930
    19  H    0.000000   0.000000   0.000000   0.000000   0.000000   0.000000
              19
     1  C    0.000000
     2  C    0.000000
     3  C    0.000000
     4  C    0.000000
     5  C    0.000000
     6  C    0.000000
     7  H    0.000000
     8  H    0.000000
     9  H    0.000000
    10  H    0.000000
    11  C    0.000000
    12  C    0.000000
    13  O    0.000000
    14  O    0.000000
    15  C    0.000000
    16  H    0.000000
    17  H    0.000000
    18  H    0.000000
    19  H    0.839713
 Mulliken charges:
               1
     1  C   -0.119517
     2  C   -0.118565
     3  C   -0.168894
     4  C   -0.054208
     5  C   -0.118414
     6  C   -0.173625
     7  H    0.167220
     8  H    0.165326
     9  H    0.166873
    10  H    0.159236
    11  C    0.075716
    12  C    0.071476
    13  O   -0.406566
    14  O   -0.378863
    15  C    0.128346
    16  H    0.151455
    17  H    0.140647
    18  H    0.152070
    19  H    0.160287
 Sum of Mulliken charges =   0.00000
 Mulliken charges with hydrogens summed into heavy atoms:
               1
     1  C   -0.119517
     2  C    0.040671
     3  C   -0.001674
     4  C   -0.054208
     5  C    0.046912
     6  C   -0.006752
    11  C    0.236004
    12  C    0.223545
    13  O   -0.406566
    14  O   -0.378863
    15  C    0.420448
 APT charges:
               1
     1  C   -0.119517
     2  C   -0.118565
     3  C   -0.168894
     4  C   -0.054208
     5  C   -0.118414
     6  C   -0.173625
     7  H    0.167220
     8  H    0.165326
     9  H    0.166873
    10  H    0.159236
    11  C    0.075716
    12  C    0.071476
    13  O   -0.406566
    14  O   -0.378863
    15  C    0.128346
    16  H    0.151455
    17  H    0.140647
    18  H    0.152070
    19  H    0.160287
 Sum of APT charges =   0.00000
 APT charges with hydrogens summed into heavy atoms:
               1
     1  C   -0.119517
     2  C    0.040671
     3  C   -0.001674
     4  C   -0.054208
     5  C    0.046912
     6  C   -0.006752
    11  C    0.236004
    12  C    0.223545
    13  O   -0.406566
    14  O   -0.378863
    15  C    0.420448
 Charge=              0.0000 electrons
 Dipole moment (field-independent basis, Debye):
    X=             -0.3071    Y=              1.4323    Z=              1.6541  Tot=              2.2095
 N-N= 3.524976266487D+02 E-N=-5.610962667575D+02  KE=-1.064157310089D+02
  Exact polarizability:       0.000       0.000       0.000       0.000       0.000       0.000
 Approx polarizability:      45.616       8.184      69.897       2.027     -23.319      65.357
 Calling FoFJK, ICntrl=    100127 FMM=F ISym2X=0 I1Cent= 0 IOpClX= 0 NMat=1 NMatS=1 NMatT=0.
 -------------------------------------------------------------------
 Center     Atomic                   Forces (Hartrees/Bohr)
 Number     Number              X              Y              Z
 -------------------------------------------------------------------
      1        6          -0.012611665    0.078008676    0.036293366
      2        6           0.020327555    0.058192146   -0.109819743
      3        6          -0.044571093   -0.090607194    0.092236464
      4        6           0.000519110   -0.015435960    0.022983386
      5        6           0.013297221   -0.000494538    0.017582421
      6        6           0.011699668    0.039953879    0.012411989
      7        1          -0.010372337   -0.006593153    0.004029613
      8        1           0.007558133    0.000658644   -0.001988781
      9        1           0.005504476    0.000102183    0.004638067
     10        1           0.000866969   -0.002668793   -0.011556890
     11        6           0.033166470   -0.017247968    0.038746941
     12        6           0.011427375    0.046587531   -0.034363397
     13        8          -0.005202192   -0.013865516    0.005016614
     14        8          -0.022449676    0.009389273   -0.005211371
     15        6          -0.013846609   -0.049438659   -0.042096601
     16        1          -0.025017869   -0.018638277   -0.005648477
     17        1           0.001921093   -0.010823862   -0.012580054
     18        1           0.009434155    0.006804039   -0.010647045
     19        1           0.018349218   -0.013882451   -0.000026504
 -------------------------------------------------------------------
 Cartesian Forces:  Max     0.109819743 RMS     0.032282327
 FormGI is forming the generalized inverse of G from B-inverse, IUseBI=4.

 GradGradGradGradGradGradGradGradGradGradGradGradGradGradGradGradGradGrad
 Berny optimization.
 Internal  Forces:  Max     0.123415215 RMS     0.026086959
 Search for a local minimum.
 Step number   1 out of a maximum of  114
 All quantities printed in internal units (Hartrees-Bohrs-Radians)
 Mixed Optimization -- RFO/linear search
 Second derivative matrix not updated -- analytic derivatives used.
 ITU=  0
     Eigenvalues ---    0.00439   0.00627   0.00847   0.01505   0.01556
     Eigenvalues ---    0.02360   0.02751   0.02955   0.03247   0.03517
     Eigenvalues ---    0.03622   0.03939   0.04130   0.04538   0.04774
     Eigenvalues ---    0.05259   0.06452   0.06712   0.06836   0.07864
     Eigenvalues ---    0.08116   0.08164   0.09389   0.09937   0.10611
     Eigenvalues ---    0.11739   0.15108   0.15558   0.17705   0.18779
     Eigenvalues ---    0.19195   0.20494   0.21136   0.23436   0.23996
     Eigenvalues ---    0.25544   0.26134   0.26513   0.27163   0.27593
     Eigenvalues ---    0.27901   0.28156   0.28422   0.29801   0.30517
     Eigenvalues ---    0.33725   0.36340   0.38617   0.47452   0.56905
     Eigenvalues ---    1.03648
 RFO step:  Lambda=-1.24242681D-01 EMin= 4.38765371D-03
 Linear search not attempted -- first point.
 Maximum step size (   0.040) exceeded in Quadratic search.
    -- Step size scaled by   0.086
 Iteration  1 RMS(Cart)=  0.00793963 RMS(Int)=  0.00002842
 Iteration  2 RMS(Cart)=  0.00003620 RMS(Int)=  0.00000724
 Iteration  3 RMS(Cart)=  0.00000000 RMS(Int)=  0.00000724
 Variable       Old X    -DE/DX   Delta X   Delta X   Delta X     New X
                                 (Linear)    (Quad)   (Total)
    R1        2.93179  -0.03631   0.00000  -0.00344  -0.00344   2.92835
    R2        2.90908  -0.01363   0.00000  -0.00392  -0.00393   2.90515
    R3        2.85838   0.05449   0.00000   0.00484   0.00484   2.86322
    R4        2.90308  -0.12342   0.00000  -0.03188  -0.03186   2.87122
    R5        2.02201  -0.01139   0.00000  -0.00100  -0.00100   2.02101
    R6        2.86316  -0.02301   0.00000  -0.00047  -0.00046   2.86270
    R7        2.02201  -0.01225   0.00000  -0.00108  -0.00108   2.02093
    R8        2.91683  -0.02175   0.00000  -0.00348  -0.00346   2.91337
    R9        2.94212   0.02620   0.00000  -0.00082  -0.00082   2.94130
   R10        2.59505  -0.02869   0.00000  -0.00306  -0.00307   2.59198
   R11        2.02201  -0.00424   0.00000  -0.00068  -0.00068   2.02133
   R12        2.02201  -0.00209   0.00000  -0.00072  -0.00072   2.02128
   R13        2.86380   0.02706   0.00000   0.00611   0.00610   2.86990
   R14        2.66270   0.05511   0.00000   0.00204   0.00203   2.66474
   R15        2.02201   0.01910   0.00000   0.00312   0.00312   2.02513
   R16        2.69455   0.05324   0.00000   0.00256   0.00256   2.69711
   R17        2.02201   0.01488   0.00000   0.00252   0.00252   2.02453
   R18        2.74541   0.01240   0.00000   0.00122   0.00123   2.74664
   R19        2.76811   0.00428   0.00000  -0.00020  -0.00019   2.76792
   R20        2.02201   0.00026   0.00000   0.00431   0.00431   2.02632
   R21        2.02201   0.01176   0.00000   0.00209   0.00209   2.02410
    A1        1.99743  -0.02001   0.00000   0.00249   0.00248   1.99990
    A2        2.09709  -0.03409   0.00000  -0.00451  -0.00451   2.09258
    A3        2.15254   0.05491   0.00000   0.00227   0.00228   2.15482
    A4        1.64949   0.00761   0.00000   0.00269   0.00267   1.65216
    A5        2.30198  -0.00469   0.00000  -0.00358  -0.00358   2.29840
    A6        2.32726  -0.00381   0.00000   0.00064   0.00064   2.32791
    A7        1.58910   0.02019   0.00000   0.00566   0.00566   1.59476
    A8        2.35811  -0.01000   0.00000  -0.00095  -0.00095   2.35716
    A9        2.33196  -0.01022   0.00000  -0.00483  -0.00483   2.32714
   A10        2.16344  -0.03920   0.00000  -0.00531  -0.00530   2.15814
   A11        2.07719  -0.02395   0.00000   0.00032   0.00031   2.07750
   A12        2.00700   0.06516   0.00000   0.00517   0.00517   2.01218
   A13        1.68501  -0.00346   0.00000  -0.00121  -0.00120   1.68381
   A14        2.29910  -0.00504   0.00000  -0.00196  -0.00197   2.29713
   A15        2.29903   0.00859   0.00000   0.00319   0.00319   2.30221
   A16        1.67950  -0.00384   0.00000  -0.00130  -0.00131   1.67819
   A17        2.30185  -0.00389   0.00000  -0.00195  -0.00194   2.29991
   A18        2.30179   0.00770   0.00000   0.00323   0.00323   2.30502
   A19        1.60899  -0.00839   0.00000  -0.00142  -0.00142   1.60758
   A20        2.05633   0.05371   0.00000   0.00342   0.00342   2.05975
   A21        1.89760  -0.02005   0.00000   0.00059   0.00059   1.89819
   A22        1.85412  -0.02555   0.00000  -0.00278  -0.00277   1.85135
   A23        2.06879   0.01000   0.00000   0.00097   0.00097   2.06976
   A24        1.95967  -0.00541   0.00000  -0.00063  -0.00064   1.95903
   A25        1.64701  -0.01965   0.00000  -0.00416  -0.00416   1.64285
   A26        1.94290   0.05675   0.00000   0.00488   0.00488   1.94777
   A27        2.07262  -0.01099   0.00000   0.00129   0.00128   2.07390
   A28        1.84114  -0.01348   0.00000  -0.00213  -0.00212   1.83902
   A29        2.05787   0.01300   0.00000   0.00196   0.00195   2.05982
   A30        1.88378  -0.02098   0.00000  -0.00191  -0.00191   1.88187
   A31        1.74103   0.05249   0.00000   0.00670   0.00668   1.74771
   A32        1.65213   0.06299   0.00000   0.00825   0.00825   1.66038
   A33        1.84624  -0.03490   0.00000  -0.00431  -0.00431   1.84193
   A34        1.91890   0.00639   0.00000   0.00012   0.00012   1.91903
   A35        1.93857   0.01857   0.00000   0.00008   0.00008   1.93865
   A36        1.91031  -0.00035   0.00000   0.00172   0.00172   1.91202
   A37        1.94714   0.02031   0.00000  -0.00002  -0.00002   1.94712
   A38        1.90213  -0.01031   0.00000   0.00227   0.00227   1.90439
    D1       -1.58792   0.00400   0.00000   0.00342   0.00342  -1.58451
    D2        1.46026  -0.00527   0.00000   0.00087   0.00087   1.46113
    D3        1.27751   0.01631   0.00000   0.00477   0.00477   1.28229
    D4       -1.95749   0.00703   0.00000   0.00222   0.00223  -1.95526
    D5        1.35011   0.00135   0.00000  -0.00158  -0.00158   1.34853
    D6       -1.78173   0.00374   0.00000   0.00037   0.00037  -1.78136
    D7       -1.50543   0.00502   0.00000  -0.00177  -0.00178  -1.50721
    D8        1.64592   0.00741   0.00000   0.00017   0.00017   1.64609
    D9       -1.59254   0.00048   0.00000   0.00169   0.00170  -1.59084
   D10        2.77667   0.02247   0.00000   0.00492   0.00494   2.78161
   D11        0.52239   0.00281   0.00000   0.00230   0.00231   0.52470
   D12        1.24741  -0.00007   0.00000   0.00306   0.00308   1.25049
   D13       -0.66656   0.02192   0.00000   0.00630   0.00631  -0.66025
   D14       -2.92084   0.00225   0.00000   0.00367   0.00368  -2.91716
   D15        0.21424  -0.01160   0.00000  -0.00534  -0.00534   0.20889
   D16       -2.83671  -0.01121   0.00000  -0.00392  -0.00391  -2.84062
   D17       -2.83174  -0.00204   0.00000  -0.00237  -0.00236  -2.83410
   D18        0.40050  -0.00165   0.00000  -0.00094  -0.00093   0.39956
   D19        1.22333   0.00683   0.00000   0.00251   0.00251   1.22584
   D20       -1.62036  -0.01230   0.00000   0.00086   0.00086  -1.61950
   D21       -2.00662   0.00642   0.00000   0.00144   0.00145  -2.00517
   D22        1.43288  -0.01271   0.00000  -0.00021  -0.00021   1.43267
   D23       -1.50986   0.01360   0.00000   0.00418   0.00418  -1.50567
   D24        1.64193   0.00533   0.00000   0.00222   0.00223   1.64416
   D25        1.34461   0.01911   0.00000   0.00511   0.00511   1.34972
   D26       -1.78679   0.01083   0.00000   0.00315   0.00315  -1.78364
   D27        1.31305  -0.00252   0.00000  -0.00190  -0.00191   1.31115
   D28       -3.07644  -0.01387   0.00000  -0.00502  -0.00503  -3.08147
   D29       -0.87318   0.00094   0.00000  -0.00192  -0.00192  -0.87510
   D30       -1.55659  -0.00405   0.00000  -0.00173  -0.00174  -1.55833
   D31        0.33711  -0.01541   0.00000  -0.00485  -0.00487   0.33224
   D32        2.54037  -0.00060   0.00000  -0.00175  -0.00176   2.53861
   D33        0.04760   0.00103   0.00000   0.00087   0.00088   0.04848
   D34       -3.10375  -0.00146   0.00000  -0.00112  -0.00113  -3.10488
   D35       -3.10418   0.00918   0.00000   0.00278   0.00279  -3.10139
   D36        0.02765   0.00668   0.00000   0.00079   0.00079   0.02844
   D37        0.19258  -0.00968   0.00000  -0.00230  -0.00229   0.19029
   D38       -1.78922  -0.06036   0.00000  -0.00563  -0.00563  -1.79485
   D39        2.38993  -0.03090   0.00000  -0.00273  -0.00273   2.38719
   D40        2.28414   0.03900   0.00000   0.00024   0.00025   2.28440
   D41        0.30234  -0.01168   0.00000  -0.00309  -0.00308   0.29925
   D42       -1.80170   0.01778   0.00000  -0.00019  -0.00019  -1.80189
   D43       -1.77498   0.01616   0.00000  -0.00239  -0.00238  -1.77736
   D44        2.52640  -0.03451   0.00000  -0.00572  -0.00572   2.52068
   D45        0.42236  -0.00505   0.00000  -0.00283  -0.00282   0.41954
   D46        1.05716   0.00596   0.00000   0.00058   0.00058   1.05774
   D47       -0.71357   0.00960   0.00000   0.00256   0.00257  -0.71100
   D48       -3.00112   0.02088   0.00000   0.00396   0.00397  -2.99714
   D49       -1.49379  -0.00571   0.00000   0.00366   0.00367  -1.49013
   D50        0.27119  -0.01366   0.00000  -0.00026  -0.00026   0.27093
   D51        2.48569  -0.01861   0.00000  -0.00032  -0.00032   2.48537
   D52       -0.76224   0.04398   0.00000   0.00500   0.00500  -0.75724
   D53        1.29866   0.02723   0.00000   0.00467   0.00467   1.30333
   D54       -2.87776   0.03062   0.00000   0.00765   0.00765  -2.87011
   D55        0.93203  -0.04064   0.00000  -0.00539  -0.00539   0.92664
   D56       -1.13460  -0.02863   0.00000  -0.00403  -0.00403  -1.13862
   D57        3.04199  -0.02857   0.00000  -0.00801  -0.00801   3.03398
         Item               Value     Threshold  Converged?
 Maximum Force            0.123415     0.000015     NO 
 RMS     Force            0.026087     0.000010     NO 
 Maximum Displacement     0.029426     0.000060     NO 
 RMS     Displacement     0.007948     0.000040     NO 
 Predicted change in Energy=-1.033576D-02
 GradGradGradGradGradGradGradGradGradGradGradGradGradGradGradGradGradGrad

                          Input orientation:                          
 ---------------------------------------------------------------------
 Center     Atomic      Atomic             Coordinates (Angstroms)
 Number     Number       Type             X           Y           Z
 ---------------------------------------------------------------------
      1          6           0       -0.340093    0.404170    0.366836
      2          6           0        0.440874    1.442847    1.210960
      3          6           0        0.710188    2.374878    0.041641
      4          6           0       -0.278926    1.627568   -0.829004
      5          6           0       -1.805049    1.664830   -0.613679
      6          6           0       -1.857171    0.644072    0.301015
      7          1           0        1.389752    3.179483   -0.144054
      8          1           0       -2.568314    2.278775   -1.043364
      9          1           0       -2.675031    0.177849    0.808776
     10          1           0        0.625380    1.510967    2.262190
     11          6           0        0.404330   -0.504449   -0.590203
     12          6           0        0.236226    0.474630   -1.738919
     13          8           0       -0.809896   -0.065142   -2.545955
     14          8           0       -0.227747   -1.697155   -0.998077
     15          6           0       -1.375212   -1.031583   -1.619155
     16          1           0       -1.947121   -0.525495   -0.866440
     17          1           0       -2.006974   -1.730280   -2.129027
     18          1           0        1.080087    0.655361   -2.373737
     19          1           0        1.388971   -0.678479   -0.204667
 ---------------------------------------------------------------------
                    Distance matrix (angstroms):
                    1          2          3          4          5
     1  C    0.000000
     2  C    1.549614   0.000000
     3  C    2.256665   1.519382   0.000000
     4  C    1.711864   2.171103   1.514874   0.000000
     5  C    2.167204   2.902198   2.694444   1.541689   0.000000
     6  C    1.537339   2.597509   3.107137   2.176020   1.371616
     7  H    3.309945   2.398403   1.069429   2.379514   3.566717
     8  H    3.235394   3.851748   3.454713   2.389836   1.069640
     9  H    2.387146   3.386862   4.107936   3.244275   2.234135
    10  H    2.397813   1.069471   2.384193   3.222863   3.768459
    11  C    1.515149   2.652826   2.963664   2.251524   3.096398
    12  C    2.184333   3.111448   2.646880   1.556468   2.617164
    13  O    2.987527   4.237082   3.867817   2.468829   2.777917
    14  O    2.508222   3.896988   4.306065   3.329412   3.733442
    15  C    2.660266   4.174987   4.325634   2.982828   2.909705
    16  H    2.228852   3.727261   4.037086   2.723959   2.209433
    17  H    3.682892   5.216915   5.380250   3.993914   3.723416
    18  H    3.096894   3.725424   2.987912   2.275589   3.527158
    19  H    2.118586   2.720829   3.137580   2.913680   3.982481
                    6          7          8          9         10
     6  C    0.000000
     7  H    4.143537   0.000000
     8  H    2.232786   4.157681   0.000000
     9  H    1.069616   5.141998   2.802802   0.000000
    10  H    3.280362   3.026255   4.660032   3.844779   0.000000
    11  C    2.688449   3.839461   4.097353   3.450382   3.499559
    12  C    2.927858   3.345212   3.406491   3.879980   4.151423
    13  O    3.115286   4.597301   3.292987   3.846036   5.259506
    14  O    3.134327   5.208384   4.613927   3.573451   4.652872
    15  C    2.593676   5.249193   3.565599   3.007840   5.052897
    16  H    1.654970   5.038196   2.877692   1.957266   4.533571
    17  H    3.400748   6.291553   4.191216   3.566222   6.059518
    18  H    3.972646   3.382096   4.209061   4.945434   4.736100
    19  H    3.541510   3.858439   5.010875   4.275099   3.385577
                   11         12         13         14         15
    11  C    0.000000
    12  C    1.518685   0.000000
    13  O    2.343567   1.427247   0.000000
    14  O    1.410118   2.341105   2.323422   0.000000
    15  C    2.122118   2.209017   1.453460   1.464718   0.000000
    16  H    2.367715   2.555089   2.079898   2.084793   1.072281
    17  H    3.112078   3.169505   2.092727   2.108504   1.071107
    18  H    2.232220   1.071335   2.029981   3.022781   3.073055
    19  H    1.071653   2.238842   3.269989   2.069053   3.125086
                   16         17         18         19
    16  H    0.000000
    17  H    1.746201   0.000000
    18  H    3.581949   3.909107   0.000000
    19  H    3.404535   4.042510   2.565035   0.000000
 Symmetry turned off by external request.
 Stoichiometry    C9H8O2
 Framework group  C1[X(C9H8O2)]
 Deg. of freedom    51
 Full point group                 C1      NOp   1
 Rotational constants (GHZ):           2.2592775           1.2604310           1.2067729
 Standard basis: VSTO-6G (5D, 7F)
    52 basis functions,   312 primitive gaussians,    52 cartesian basis functions
    28 alpha electrons       28 beta electrons
       nuclear repulsion energy       352.3761947201 Hartrees.
 Integral buffers will be    131072 words long.
 Regular integral format.
 Two-electron integral symmetry is turned off.
 Do NDO integrals.
 One-electron integrals computed using PRISM.
 NBasis=    52 RedAO= F EigKep=  0.00D+00  NBF=    52
 NBsUse=    52 1.00D-04 EigRej=  0.00D+00 NBFU=    52
 Initial guess from the checkpoint file:  "C:\Users\al6323\OneDrive - Imperial College London\Desktop\TSR20251113\Product_PM6_endo.chk"
 B after Tr=    -0.000645    0.000789    0.001351
         Rot=    1.000000    0.000190    0.000028    0.000096 Ang=   0.02 deg.
 Keep J ints in memory in canonical form, NReq=867036.
 Overlap will be assumed to be unity.
 Requested convergence on RMS density matrix=1.00D-08 within  32 cycles.
 Requested convergence on MAX density matrix=1.00D-06.
 Requested convergence on             energy=1.00D-06.
 No special actions if energy rises.
 SCF Done:  E(RPM6) =  0.177662301994     A.U. after   14 cycles
            NFock= 13  Conv=0.45D-08     -V/T= 1.0017
 QCSCF skips out because SCF is already converged.
 Calling FoFJK, ICntrl=      2127 FMM=F ISym2X=0 I1Cent= 0 IOpClX= 0 NMat=1 NMatS=1 NMatT=0.
 -------------------------------------------------------------------
 Center     Atomic                   Forces (Hartrees/Bohr)
 Number     Number              X              Y              Z
 -------------------------------------------------------------------
      1        6          -0.012218267    0.073156733    0.033693552
      2        6           0.019174402    0.055684473   -0.103830466
      3        6          -0.041504546   -0.085815205    0.087949964
      4        6           0.000226366   -0.015068253    0.020787374
      5        6           0.012294425   -0.000273241    0.016167153
      6        6           0.010983405    0.036701261    0.011442950
      7        1          -0.009972545   -0.005779587    0.003674993
      8        1           0.007195383    0.000609209   -0.002052449
      9        1           0.005314667   -0.000005006    0.004362525
     10        1           0.001060888   -0.002918308   -0.010703823
     11        6           0.031260666   -0.016470533    0.037127255
     12        6           0.010518911    0.043947284   -0.032846828
     13        8          -0.004912838   -0.012941942    0.005473290
     14        8          -0.022115651    0.009658449   -0.004371333
     15        6          -0.012448462   -0.046003283   -0.039128298
     16        1          -0.023269355   -0.017101847   -0.005193170
     17        1           0.002508429   -0.010291255   -0.012150321
     18        1           0.008737251    0.006589464   -0.010007366
     19        1           0.017166872   -0.013678413   -0.000395001
 -------------------------------------------------------------------
 Cartesian Forces:  Max     0.103830466 RMS     0.030478102

 GradGradGradGradGradGradGradGradGradGradGradGradGradGradGradGradGradGrad
 Berny optimization.
 Using GEDIIS/GDIIS optimizer.
 FormGI is forming the generalized inverse of G from B-inverse, IUseBI=4.
 Internal  Forces:  Max     0.116200474 RMS     0.024300403
 Search for a local minimum.
 Step number   2 out of a maximum of  114
 All quantities printed in internal units (Hartrees-Bohrs-Radians)
 Mixed Optimization -- RFO/linear search
 Update second derivatives using D2CorX and points    1    2
 DE= -1.03D-02 DEPred=-1.03D-02 R= 1.00D+00
 TightC=F SS=  1.41D+00  RLast= 4.77D-02 DXNew= 6.7272D-02 1.4311D-01
 Trust test= 1.00D+00 RLast= 4.77D-02 DXMaxT set to 6.73D-02
 ITU=  1  0
 Use linear search instead of GDIIS.
 Linear search step of   0.080 exceeds DXMaxT=   0.067 but not scaled.
 Quartic linear search produced a step of  2.00000.
 Iteration  1 RMS(Cart)=  0.01587995 RMS(Int)=  0.00011823
 Iteration  2 RMS(Cart)=  0.00014422 RMS(Int)=  0.00004358
 Iteration  3 RMS(Cart)=  0.00000001 RMS(Int)=  0.00004358
 Variable       Old X    -DE/DX   Delta X   Delta X   Delta X     New X
                                 (Linear)    (Quad)   (Total)
    R1        2.92835  -0.03364  -0.00689   0.00000  -0.00691   2.92144
    R2        2.90515  -0.01303  -0.00786   0.00000  -0.00794   2.89721
    R3        2.86322   0.05043   0.00968   0.00000   0.00967   2.87289
    R4        2.87122  -0.11620  -0.06372   0.00000  -0.06364   2.80758
    R5        2.02101  -0.01052  -0.00200   0.00000  -0.00200   2.01901
    R6        2.86270  -0.02103  -0.00093   0.00000  -0.00088   2.86182
    R7        2.02093  -0.01132  -0.00216   0.00000  -0.00216   2.01877
    R8        2.91337  -0.02021  -0.00693   0.00000  -0.00687   2.90650
    R9        2.94130   0.02399  -0.00164   0.00000  -0.00162   2.93967
   R10        2.59198  -0.02674  -0.00614   0.00000  -0.00623   2.58575
   R11        2.02133  -0.00396  -0.00136   0.00000  -0.00136   2.01997
   R12        2.02128  -0.00199  -0.00145   0.00000  -0.00145   2.01983
   R13        2.86990   0.02546   0.01219   0.00000   0.01210   2.88200
   R14        2.66474   0.05070   0.00407   0.00000   0.00406   2.66880
   R15        2.02513   0.01785   0.00625   0.00000   0.00625   2.03138
   R16        2.69711   0.04901   0.00512   0.00000   0.00510   2.70220
   R17        2.02453   0.01392   0.00505   0.00000   0.00505   2.02958
   R18        2.74664   0.01158   0.00247   0.00000   0.00253   2.74917
   R19        2.76792   0.00394  -0.00038   0.00000  -0.00034   2.76757
   R20        2.02632   0.00069   0.00862   0.00000   0.00862   2.03494
   R21        2.02410   0.01102   0.00418   0.00000   0.00418   2.02828
    A1        1.99990  -0.01810   0.00495   0.00000   0.00489   2.00479
    A2        2.09258  -0.03182  -0.00902   0.00000  -0.00901   2.08357
    A3        2.15482   0.05068   0.00456   0.00000   0.00460   2.15942
    A4        1.65216   0.00721   0.00535   0.00000   0.00528   1.65744
    A5        2.29840  -0.00470  -0.00716   0.00000  -0.00713   2.29127
    A6        2.32791  -0.00337   0.00128   0.00000   0.00130   2.32921
    A7        1.59476   0.01919   0.01132   0.00000   0.01133   1.60610
    A8        2.35716  -0.00928  -0.00190   0.00000  -0.00191   2.35525
    A9        2.32714  -0.00996  -0.00965   0.00000  -0.00965   2.31749
   A10        2.15814  -0.03652  -0.01061   0.00000  -0.01057   2.14756
   A11        2.07750  -0.02203   0.00062   0.00000   0.00055   2.07805
   A12        2.01218   0.06043   0.01035   0.00000   0.01039   2.02257
   A13        1.68381  -0.00316  -0.00240   0.00000  -0.00233   1.68148
   A14        2.29713  -0.00494  -0.00394   0.00000  -0.00398   2.29315
   A15        2.30221   0.00816   0.00637   0.00000   0.00633   2.30854
   A16        1.67819  -0.00371  -0.00262   0.00000  -0.00268   1.67551
   A17        2.29991  -0.00378  -0.00388   0.00000  -0.00386   2.29605
   A18        2.30502   0.00745   0.00646   0.00000   0.00648   2.31150
   A19        1.60758  -0.00779  -0.00283   0.00000  -0.00282   1.60476
   A20        2.05975   0.04962   0.00683   0.00000   0.00682   2.06656
   A21        1.89819  -0.01836   0.00118   0.00000   0.00117   1.89936
   A22        1.85135  -0.02366  -0.00554   0.00000  -0.00551   1.84584
   A23        2.06976   0.00920   0.00194   0.00000   0.00190   2.07166
   A24        1.95903  -0.00507  -0.00127   0.00000  -0.00129   1.95774
   A25        1.64285  -0.01835  -0.00831   0.00000  -0.00829   1.63456
   A26        1.94777   0.05254   0.00975   0.00000   0.00973   1.95751
   A27        2.07390  -0.00997   0.00256   0.00000   0.00254   2.07644
   A28        1.83902  -0.01251  -0.00424   0.00000  -0.00420   1.83481
   A29        2.05982   0.01202   0.00391   0.00000   0.00388   2.06370
   A30        1.88187  -0.01943  -0.00382   0.00000  -0.00382   1.87805
   A31        1.74771   0.04872   0.01337   0.00000   0.01330   1.76101
   A32        1.66038   0.05864   0.01650   0.00000   0.01648   1.67686
   A33        1.84193  -0.03249  -0.00862   0.00000  -0.00863   1.83330
   A34        1.91903   0.00588   0.00025   0.00000   0.00026   1.91929
   A35        1.93865   0.01701   0.00016   0.00000   0.00013   1.93878
   A36        1.91202  -0.00015   0.00343   0.00000   0.00343   1.91545
   A37        1.94712   0.01860  -0.00005   0.00000  -0.00008   1.94704
   A38        1.90439  -0.00919   0.00454   0.00000   0.00453   1.90892
    D1       -1.58451   0.00408   0.00684   0.00000   0.00685  -1.57766
    D2        1.46113  -0.00470   0.00175   0.00000   0.00179   1.46293
    D3        1.28229   0.01548   0.00954   0.00000   0.00954   1.29183
    D4       -1.95526   0.00671   0.00446   0.00000   0.00448  -1.95078
    D5        1.34853   0.00104  -0.00316   0.00000  -0.00318   1.34534
    D6       -1.78136   0.00349   0.00074   0.00000   0.00073  -1.78063
    D7       -1.50721   0.00438  -0.00356   0.00000  -0.00359  -1.51080
    D8        1.64609   0.00682   0.00034   0.00000   0.00032   1.64642
    D9       -1.59084   0.00083   0.00341   0.00000   0.00351  -1.58733
   D10        2.78161   0.02140   0.00988   0.00000   0.00999   2.79160
   D11        0.52470   0.00298   0.00462   0.00000   0.00468   0.52938
   D12        1.25049   0.00042   0.00615   0.00000   0.00621   1.25670
   D13       -0.66025   0.02098   0.01262   0.00000   0.01270  -0.64755
   D14       -2.91716   0.00256   0.00736   0.00000   0.00738  -2.90978
   D15        0.20889  -0.01129  -0.01069   0.00000  -0.01069   0.19820
   D16       -2.84062  -0.01071  -0.00783   0.00000  -0.00780  -2.84843
   D17       -2.83410  -0.00217  -0.00473   0.00000  -0.00470  -2.83881
   D18        0.39956  -0.00159  -0.00187   0.00000  -0.00182   0.39774
   D19        1.22584   0.00665   0.00503   0.00000   0.00508   1.23092
   D20       -1.61950  -0.01110   0.00172   0.00000   0.00177  -1.61773
   D21       -2.00517   0.00610   0.00289   0.00000   0.00294  -2.00224
   D22        1.43267  -0.01165  -0.00041   0.00000  -0.00038   1.43230
   D23       -1.50567   0.01300   0.00837   0.00000   0.00840  -1.49727
   D24        1.64416   0.00522   0.00446   0.00000   0.00451   1.64867
   D25        1.34972   0.01811   0.01022   0.00000   0.01024   1.35996
   D26       -1.78364   0.01033   0.00631   0.00000   0.00635  -1.77729
   D27        1.31115  -0.00260  -0.00381   0.00000  -0.00385   1.30730
   D28       -3.08147  -0.01351  -0.01007   0.00000  -0.01017  -3.09164
   D29       -0.87510   0.00059  -0.00385   0.00000  -0.00384  -0.87894
   D30       -1.55833  -0.00408  -0.00349   0.00000  -0.00356  -1.56189
   D31        0.33224  -0.01499  -0.00974   0.00000  -0.00989   0.32235
   D32        2.53861  -0.00088  -0.00352   0.00000  -0.00356   2.53505
   D33        0.04848   0.00109   0.00175   0.00000   0.00180   0.05028
   D34       -3.10488  -0.00148  -0.00226   0.00000  -0.00228  -3.10716
   D35       -3.10139   0.00881   0.00559   0.00000   0.00567  -3.09572
   D36        0.02844   0.00624   0.00158   0.00000   0.00159   0.03003
   D37        0.19029  -0.00914  -0.00458   0.00000  -0.00454   0.18575
   D38       -1.79485  -0.05604  -0.01125   0.00000  -0.01126  -1.80611
   D39        2.38719  -0.02869  -0.00547   0.00000  -0.00547   2.38172
   D40        2.28440   0.03583   0.00051   0.00000   0.00056   2.28496
   D41        0.29925  -0.01107  -0.00617   0.00000  -0.00616   0.29309
   D42       -1.80189   0.01628  -0.00038   0.00000  -0.00037  -1.80226
   D43       -1.77736   0.01459  -0.00476   0.00000  -0.00471  -1.78207
   D44        2.52068  -0.03231  -0.01144   0.00000  -0.01143   2.50925
   D45        0.41954  -0.00496  -0.00565   0.00000  -0.00564   0.41389
   D46        1.05774   0.00561   0.00116   0.00000   0.00120   1.05894
   D47       -0.71100   0.00930   0.00514   0.00000   0.00521  -0.70579
   D48       -2.99714   0.01975   0.00795   0.00000   0.00801  -2.98913
   D49       -1.49013  -0.00485   0.00733   0.00000   0.00735  -1.48278
   D50        0.27093  -0.01263  -0.00052   0.00000  -0.00055   0.27038
   D51        2.48537  -0.01715  -0.00065   0.00000  -0.00066   2.48471
   D52       -0.75724   0.04086   0.00999   0.00000   0.00998  -0.74726
   D53        1.30333   0.02550   0.00934   0.00000   0.00934   1.31267
   D54       -2.87011   0.02899   0.01530   0.00000   0.01529  -2.85482
   D55        0.92664  -0.03782  -0.01078   0.00000  -0.01077   0.91586
   D56       -1.13862  -0.02669  -0.00805   0.00000  -0.00803  -1.14666
   D57        3.03398  -0.02714  -0.01602   0.00000  -0.01601   3.01797
         Item               Value     Threshold  Converged?
 Maximum Force            0.116200     0.000015     NO 
 RMS     Force            0.024300     0.000010     NO 
 Maximum Displacement     0.058173     0.000060     NO 
 RMS     Displacement     0.015915     0.000040     NO 
 Predicted change in Energy=-1.874801D-02
 GradGradGradGradGradGradGradGradGradGradGradGradGradGradGradGradGradGrad

                          Input orientation:                          
 ---------------------------------------------------------------------
 Center     Atomic      Atomic             Coordinates (Angstroms)
 Number     Number       Type             X           Y           Z
 ---------------------------------------------------------------------
      1          6           0       -0.343531    0.416688    0.371339
      2          6           0        0.449358    1.453779    1.199441
      3          6           0        0.703379    2.365603    0.054290
      4          6           0       -0.282355    1.623993   -0.824218
      5          6           0       -1.803790    1.672719   -0.604053
      6          6           0       -1.856329    0.658702    0.313179
      7          1           0        1.379812    3.170810   -0.133630
      8          1           0       -2.560502    2.293584   -1.033590
      9          1           0       -2.668755    0.196280    0.831415
     10          1           0        0.640630    1.520651    2.248464
     11          6           0        0.401528   -0.502594   -0.583133
     12          6           0        0.235000    0.477563   -1.739620
     13          8           0       -0.804558   -0.075595   -2.550839
     14          8           0       -0.230477   -1.695651   -0.997475
     15          6           0       -1.379415   -1.049063   -1.635230
     16          1           0       -1.974026   -0.547258   -0.890770
     17          1           0       -1.990313   -1.758737   -2.159810
     18          1           0        1.080542    0.661270   -2.375859
     19          1           0        1.388074   -0.679897   -0.194765
 ---------------------------------------------------------------------
                    Distance matrix (angstroms):
                    1          2          3          4          5
     1  C    0.000000
     2  C    1.545958   0.000000
     3  C    2.234906   1.485705   0.000000
     4  C    1.700201   2.158604   1.514408   0.000000
     5  C    2.159018   2.894340   2.683169   1.538054   0.000000
     6  C    1.533138   2.594957   3.087496   2.168606   1.368321
     7  H    3.287871   2.364534   1.068286   2.373258   3.549774
     8  H    3.226690   3.840698   3.441161   2.383725   1.068920
     9  H    2.380528   3.382215   4.084258   3.236416   2.233518
    10  H    2.389750   1.068412   2.352080   3.209977   3.759676
    11  C    1.520266   2.647122   2.953637   2.246817   3.097717
    12  C    2.189646   3.104357   2.646164   1.555609   2.621941
    13  O    2.999002   4.239799   3.875567   2.478410   2.800900
    14  O    2.519606   3.899684   4.297916   3.324567   3.738451
    15  C    2.692174   4.200475   4.341941   3.001085   2.941347
    16  H    2.276099   3.774378   4.067726   2.753273   2.244880
    17  H    3.721704   5.249460   5.400777   4.017934   3.772276
    18  H    3.104013   3.716078   2.992094   2.278577   3.532945
    19  H    2.126365   2.716169   3.131438   2.914524   3.986266
                    6          7          8          9         10
     6  C    0.000000
     7  H    4.121036   0.000000
     8  H    2.232148   4.135883   0.000000
     9  H    1.068849   5.115666   2.808673   0.000000
    10  H    3.274613   2.990617   4.649360   3.835885   0.000000
    11  C    2.692564   3.827923   4.098188   3.451956   3.488356
    12  C    2.936060   3.338171   3.407528   3.888590   4.142147
    13  O    3.138154   4.599296   3.316383   3.871535   5.260217
    14  O    3.147092   5.198241   4.619992   3.587401   4.651833
    15  C    2.634427   5.260748   3.595863   3.049199   5.076129
    16  H    1.708124   5.064142   2.904262   2.000355   4.579025
    17  H    3.460873   6.305838   4.244385   3.637280   6.091726
    18  H    3.981977   3.378601   4.209910   4.955809   4.724026
    19  H    3.546266   3.851202   5.013629   4.275347   3.372010
                   11         12         13         14         15
    11  C    0.000000
    12  C    1.525091   0.000000
    13  O    2.347092   1.429944   0.000000
    14  O    1.412266   2.343141   2.316698   0.000000
    15  C    2.139461   2.224369   1.454799   1.464536   0.000000
    16  H    2.395807   2.578876   2.084694   2.090492   1.076843
    17  H    3.128052   3.182705   2.095683   2.109982   1.073321
    18  H    2.242656   1.074006   2.031549   3.028826   3.086285
    19  H    1.074960   2.248527   3.274737   2.072633   3.141690
                   16         17         18         19
    16  H    0.000000
    17  H    1.754540   0.000000
    18  H    3.605054   3.915771   0.000000
    19  H    3.435948   4.054479   2.578851   0.000000
 Symmetry turned off by external request.
 Stoichiometry    C9H8O2
 Framework group  C1[X(C9H8O2)]
 Deg. of freedom    51
 Full point group                 C1      NOp   1
 Rotational constants (GHZ):           2.2686771           1.2544964           1.2005304
 Standard basis: VSTO-6G (5D, 7F)
    52 basis functions,   312 primitive gaussians,    52 cartesian basis functions
    28 alpha electrons       28 beta electrons
       nuclear repulsion energy       352.1454318820 Hartrees.
 Integral buffers will be    131072 words long.
 Regular integral format.
 Two-electron integral symmetry is turned off.
 Do NDO integrals.
 One-electron integrals computed using PRISM.
 NBasis=    52 RedAO= F EigKep=  0.00D+00  NBF=    52
 NBsUse=    52 1.00D-04 EigRej=  0.00D+00 NBFU=    52
 Initial guess from the checkpoint file:  "C:\Users\al6323\OneDrive - Imperial College London\Desktop\TSR20251113\Product_PM6_endo.chk"
 B after Tr=    -0.001386    0.001574    0.002702
         Rot=    1.000000    0.000376    0.000054    0.000197 Ang=   0.05 deg.
 Keep J ints in memory in canonical form, NReq=867036.
 Overlap will be assumed to be unity.
 Requested convergence on RMS density matrix=1.00D-08 within  32 cycles.
 Requested convergence on MAX density matrix=1.00D-06.
 Requested convergence on             energy=1.00D-06.
 No special actions if energy rises.
 SCF Done:  E(RPM6) =  0.158957075614     A.U. after   14 cycles
            NFock= 13  Conv=0.69D-08     -V/T= 1.0015
 QCSCF skips out because SCF is already converged.
 Calling FoFJK, ICntrl=      2127 FMM=F ISym2X=0 I1Cent= 0 IOpClX= 0 NMat=1 NMatS=1 NMatT=0.
 -------------------------------------------------------------------
 Center     Atomic                   Forces (Hartrees/Bohr)
 Number     Number              X              Y              Z
 -------------------------------------------------------------------
      1        6          -0.011323508    0.063308859    0.028878491
      2        6           0.016566979    0.049071890   -0.089766026
      3        6          -0.034950835   -0.074542347    0.077288389
      4        6          -0.000348533   -0.014201833    0.016233497
      5        6           0.010215752    0.000438681    0.013200693
      6        6           0.009333738    0.030496341    0.010046632
      7        1          -0.009135819   -0.004083856    0.002912151
      8        1           0.006466674    0.000524567   -0.002179347
      9        1           0.004889166   -0.000202456    0.003873084
     10        1           0.001457893   -0.003439807   -0.008911077
     11        6           0.027628387   -0.015017665    0.033923339
     12        6           0.008802052    0.038791575   -0.029929472
     13        8          -0.004426295   -0.011111319    0.006304969
     14        8          -0.021458656    0.010086948   -0.002694023
     15        6          -0.009716377   -0.039401470   -0.033545512
     16        1          -0.019808953   -0.014397973   -0.004501999
     17        1           0.003621607   -0.009211159   -0.011260520
     18        1           0.007355728    0.006162445   -0.008747087
     19        1           0.014831000   -0.013271422   -0.001126184
 -------------------------------------------------------------------
 Cartesian Forces:  Max     0.089766026 RMS     0.026545265

 GradGradGradGradGradGradGradGradGradGradGradGradGradGradGradGradGradGrad
 Berny optimization.
 Using GEDIIS/GDIIS optimizer.
 FormGI is forming the generalized inverse of G from B-inverse, IUseBI=4.
 Internal  Forces:  Max     0.099432797 RMS     0.020788177
 Search for a local minimum.
 Step number   3 out of a maximum of  114
 All quantities printed in internal units (Hartrees-Bohrs-Radians)
 Mixed Optimization -- RFO/linear search
 Update second derivatives using D2CorX and points    1    2    3
 ITU=  0  1  0
 Use linear search instead of GDIIS.
 Linear search step of   0.160 exceeds DXMaxT=   0.067 scaled by   0.842
 Quartic linear search produced a step of  1.68482.
 Iteration  1 RMS(Cart)=  0.02676248 RMS(Int)=  0.00033885
 Iteration  2 RMS(Cart)=  0.00040655 RMS(Int)=  0.00013223
 Iteration  3 RMS(Cart)=  0.00000010 RMS(Int)=  0.00013223
 Variable       Old X    -DE/DX   Delta X   Delta X   Delta X     New X
                                 (Linear)    (Quad)   (Total)
    R1        2.92144  -0.02826  -0.01164   0.00000  -0.01171   2.90973
    R2        2.89721  -0.01153  -0.01338   0.00000  -0.01362   2.88360
    R3        2.87289   0.04296   0.01629   0.00000   0.01624   2.88913
    R4        2.80758  -0.09943  -0.10722   0.00000  -0.10695   2.70063
    R5        2.01901  -0.00870  -0.00337   0.00000  -0.00337   2.01564
    R6        2.86182  -0.01698  -0.00148   0.00000  -0.00133   2.86048
    R7        2.01877  -0.00938  -0.00364   0.00000  -0.00364   2.01513
    R8        2.90650  -0.01703  -0.01157   0.00000  -0.01138   2.89512
    R9        2.93967   0.01988  -0.00273   0.00000  -0.00269   2.93699
   R10        2.58575  -0.02227  -0.01049   0.00000  -0.01074   2.57501
   R11        2.01997  -0.00340  -0.00229   0.00000  -0.00229   2.01767
   R12        2.01983  -0.00175  -0.00244   0.00000  -0.00244   2.01739
   R13        2.88200   0.02294   0.02039   0.00000   0.02013   2.90213
   R14        2.66880   0.04239   0.00684   0.00000   0.00682   2.67561
   R15        2.03138   0.01539   0.01053   0.00000   0.01053   2.04191
   R16        2.70220   0.04099   0.00859   0.00000   0.00852   2.71072
   R17        2.02958   0.01203   0.00850   0.00000   0.00850   2.03808
   R18        2.74917   0.00977   0.00426   0.00000   0.00445   2.75362
   R19        2.76757   0.00300  -0.00058   0.00000  -0.00046   2.76711
   R20        2.03494   0.00112   0.01452   0.00000   0.01452   2.04946
   R21        2.02828   0.00953   0.00705   0.00000   0.00705   2.03533
    A1        2.00479  -0.01463   0.00824   0.00000   0.00805   2.01284
    A2        2.08357  -0.02747  -0.01518   0.00000  -0.01513   2.06844
    A3        2.15942   0.04277   0.00776   0.00000   0.00788   2.16730
    A4        1.65744   0.00616   0.00889   0.00000   0.00868   1.66612
    A5        2.29127  -0.00464  -0.01201   0.00000  -0.01192   2.27936
    A6        2.32921  -0.00234   0.00219   0.00000   0.00224   2.33145
    A7        1.60610   0.01697   0.01909   0.00000   0.01912   1.62522
    A8        2.35525  -0.00769  -0.00322   0.00000  -0.00326   2.35199
    A9        2.31749  -0.00936  -0.01626   0.00000  -0.01626   2.30122
   A10        2.14756  -0.03137  -0.01781   0.00000  -0.01769   2.12987
   A11        2.07805  -0.01856   0.00093   0.00000   0.00070   2.07875
   A12        2.02257   0.05153   0.01751   0.00000   0.01763   2.04020
   A13        1.68148  -0.00245  -0.00392   0.00000  -0.00370   1.67778
   A14        2.29315  -0.00480  -0.00671   0.00000  -0.00683   2.28632
   A15        2.30854   0.00728   0.01067   0.00000   0.01054   2.31908
   A16        1.67551  -0.00333  -0.00451   0.00000  -0.00467   1.67084
   A17        2.29605  -0.00360  -0.00651   0.00000  -0.00644   2.28960
   A18        2.31150   0.00689   0.01092   0.00000   0.01099   2.32249
   A19        1.60476  -0.00655  -0.00475   0.00000  -0.00472   1.60003
   A20        2.06656   0.04196   0.01149   0.00000   0.01144   2.07801
   A21        1.89936  -0.01522   0.00198   0.00000   0.00197   1.90133
   A22        1.84584  -0.02022  -0.00929   0.00000  -0.00921   1.83663
   A23        2.07166   0.00781   0.00320   0.00000   0.00309   2.07475
   A24        1.95774  -0.00447  -0.00217   0.00000  -0.00220   1.95554
   A25        1.63456  -0.01568  -0.01397   0.00000  -0.01389   1.62068
   A26        1.95751   0.04465   0.01640   0.00000   0.01633   1.97384
   A27        2.07644  -0.00824   0.00428   0.00000   0.00421   2.08065
   A28        1.83481  -0.01085  -0.00708   0.00000  -0.00697   1.82784
   A29        2.06370   0.01032   0.00653   0.00000   0.00643   2.07013
   A30        1.87805  -0.01657  -0.00643   0.00000  -0.00642   1.87163
   A31        1.76101   0.04173   0.02241   0.00000   0.02220   1.78321
   A32        1.67686   0.05048   0.02777   0.00000   0.02773   1.70459
   A33        1.83330  -0.02773  -0.01454   0.00000  -0.01458   1.81872
   A34        1.91929   0.00492   0.00044   0.00000   0.00047   1.91976
   A35        1.93878   0.01402   0.00022   0.00000   0.00014   1.93892
   A36        1.91545   0.00012   0.00577   0.00000   0.00577   1.92122
   A37        1.94704   0.01534  -0.00013   0.00000  -0.00021   1.94683
   A38        1.90892  -0.00708   0.00763   0.00000   0.00760   1.91652
    D1       -1.57766   0.00422   0.01154   0.00000   0.01158  -1.56607
    D2        1.46293  -0.00355   0.00302   0.00000   0.00316   1.46609
    D3        1.29183   0.01388   0.01607   0.00000   0.01604   1.30787
    D4       -1.95078   0.00612   0.00755   0.00000   0.00762  -1.94315
    D5        1.34534   0.00079  -0.00536   0.00000  -0.00544   1.33990
    D6       -1.78063   0.00309   0.00124   0.00000   0.00122  -1.77941
    D7       -1.51080   0.00355  -0.00606   0.00000  -0.00616  -1.51696
    D8        1.64642   0.00584   0.00055   0.00000   0.00050   1.64692
    D9       -1.58733   0.00127   0.00591   0.00000   0.00622  -1.58111
   D10        2.79160   0.01916   0.01684   0.00000   0.01719   2.80879
   D11        0.52938   0.00324   0.00788   0.00000   0.00808   0.53745
   D12        1.25670   0.00106   0.01047   0.00000   0.01066   1.26736
   D13       -0.64755   0.01894   0.02139   0.00000   0.02163  -0.62593
   D14       -2.90978   0.00303   0.01244   0.00000   0.01252  -2.89727
   D15        0.19820  -0.01060  -0.01801   0.00000  -0.01800   0.18020
   D16       -2.84843  -0.00971  -0.01315   0.00000  -0.01307  -2.86150
   D17       -2.83881  -0.00236  -0.00793   0.00000  -0.00786  -2.84667
   D18        0.39774  -0.00147  -0.00307   0.00000  -0.00293   0.39482
   D19        1.23092   0.00631   0.00856   0.00000   0.00871   1.23964
   D20       -1.61773  -0.00880   0.00298   0.00000   0.00311  -1.61462
   D21       -2.00224   0.00554   0.00495   0.00000   0.00507  -1.99716
   D22        1.43230  -0.00957  -0.00063   0.00000  -0.00053   1.43176
   D23       -1.49727   0.01166   0.01416   0.00000   0.01427  -1.48300
   D24        1.64867   0.00494   0.00760   0.00000   0.00777   1.65644
   D25        1.35996   0.01598   0.01725   0.00000   0.01729   1.37725
   D26       -1.77729   0.00927   0.01069   0.00000   0.01080  -1.76649
   D27        1.30730  -0.00244  -0.00648   0.00000  -0.00659   1.30071
   D28       -3.09164  -0.01250  -0.01713   0.00000  -0.01745  -3.10909
   D29       -0.87894   0.00003  -0.00647   0.00000  -0.00646  -0.88540
   D30       -1.56189  -0.00375  -0.00600   0.00000  -0.00624  -1.56813
   D31        0.32235  -0.01381  -0.01666   0.00000  -0.01710   0.30526
   D32        2.53505  -0.00129  -0.00599   0.00000  -0.00611   2.52895
   D33        0.05028   0.00115   0.00304   0.00000   0.00319   0.05347
   D34       -3.10716  -0.00133  -0.00384   0.00000  -0.00392  -3.11108
   D35       -3.09572   0.00791   0.00956   0.00000   0.00981  -3.08591
   D36        0.03003   0.00543   0.00267   0.00000   0.00269   0.03273
   D37        0.18575  -0.00807  -0.00765   0.00000  -0.00753   0.17822
   D38       -1.80611  -0.04794  -0.01897   0.00000  -0.01899  -1.82511
   D39        2.38172  -0.02449  -0.00922   0.00000  -0.00924   2.37248
   D40        2.28496   0.02996   0.00094   0.00000   0.00111   2.28607
   D41        0.29309  -0.00991  -0.01038   0.00000  -0.01035   0.28274
   D42       -1.80226   0.01355  -0.00063   0.00000  -0.00060  -1.80286
   D43       -1.78207   0.01165  -0.00794   0.00000  -0.00778  -1.78986
[...]
 713,-0.00397736,-0.01283385,-0.21221064,0.00416204,0.04468122,0.483270
 19,0.04849459,-0.01749106,0.03087560,-0.00056830,-0.00169024,0.0008720
 3,-0.01700096,0.00252720,-0.00326608,0.02913367,-0.04666938,-0.0192579
 6,-0.13513421,0.42925625,-0.04391964,0.02971259,-0.01109938,-0.0021406
 8,0.00279278,-0.00309434,-0.00375403,0.00230098,0.00582166,0.00675718,
 -0.01313494,-0.04451387,0.07514309,-0.31510815,0.51775093,-0.21264452,
 0.04062526,-0.00045783,-0.02779967,-0.01418931,-0.00043279,-0.00853345
 ,-0.00407686,-0.00252781,-0.03939369,-0.02675485,0.04923079,-0.0482091
 9,-0.00997450,0.01030104,0.47390256,0.00891525,-0.05008404,-0.01250877
 ,-0.00788024,0.00502526,0.00185200,-0.00226781,-0.00241823,0.00292353,
 -0.03301158,-0.00027694,0.02768631,0.01869442,-0.25473568,0.23882939,0
 .03912541,0.38699710,0.03201443,-0.01877950,-0.04066371,-0.01494497,-0
 .00386124,0.00329532,0.00002977,0.00110420,-0.00243091,0.05627720,0.02
 883600,-0.03237567,-0.02537725,0.24778985,-0.35859243,-0.13898527,-0.3
 0987407,0.56937644,0.00390822,-0.00347685,-0.00206271,0.00400164,-0.00
 178841,0.00145716,-0.07436937,-0.07129428,0.02119858,-0.00666078,-0.01
 731964,-0.00298592,0.00011152,0.00011328,-0.00009430,0.00062672,0.0008
 5540,0.00001598,0.07218674,-0.00392408,0.00006871,0.00165011,-0.007810
 17,-0.01793317,0.01243258,-0.07095276,-0.18806048,0.03969353,-0.012374
 96,-0.01179391,-0.00150590,0.00047430,-0.00045344,-0.00004840,-0.00012
 652,-0.00043238,0.00030580,0.09432821,0.21781814,-0.00260343,0.0020541
 0,0.00101561,0.00855177,0.02355576,-0.00724632,0.02081916,0.03876369,-
 0.04739044,-0.00918198,-0.01117241,0.00216413,0.00074418,-0.00084176,-
 0.00046926,-0.00024501,-0.00053370,0.00041769,-0.01779701,-0.05310206,
 0.05135117,-0.00106649,0.00139035,0.00002339,0.00048317,0.00003941,-0.
 00013995,0.00016478,0.00068683,0.00040001,-0.02547639,0.01200601,-0.00
 638979,-0.12909879,0.07333636,-0.06613577,0.00272519,0.00312024,-0.003
 59116,-0.00008029,-0.00003739,0.00009330,0.15174675,0.00216072,0.00373
 209,0.00394958,0.00062126,-0.00041306,0.00040845,-0.00005506,-0.000426
 34,0.00000085,0.00440442,0.00335778,0.00229603,0.07276343,-0.09689651,
 0.04930491,0.01196333,-0.01057833,0.01517272,-0.00008492,0.00016700,-0
 .00004444,-0.09074499,0.10036109,0.00023358,0.00426387,0.00228521,0.00
 063667,-0.00044785,0.00055680,0.00011503,-0.00088271,-0.00051040,0.003
 75901,-0.00001828,0.00497593,-0.06560576,0.04902324,-0.08328187,-0.014
 74907,0.01758596,-0.01344313,-0.00012734,-0.00009368,0.00008320,0.0764
 3068,-0.07132296,0.08923617,-0.02502470,-0.00434331,0.01382143,0.00016
 445,0.00055386,0.00059461,0.00048383,-0.00012350,0.00005918,-0.0009976
 8,0.00030808,0.00134344,0.00349409,-0.00226655,0.00289310,-0.12252228,
 -0.04951006,0.08479110,0.00009618,-0.00007932,0.00007019,0.00065473,-0
 .00002830,0.00021602,0.14386454,0.00393298,0.00537492,-0.00027339,0.00
 009739,-0.00067330,-0.00081696,0.00073451,0.00051957,-0.00066248,0.000
 68254,0.00404690,0.00421184,-0.01126819,-0.00693086,0.01711969,-0.0491
 1875,-0.06589753,0.04506642,-0.00015508,0.00006217,0.00019401,0.000234
 40,0.00044238,0.00092828,0.05592637,0.06297571,0.00421872,0.00205555,0
 .00250650,-0.00008998,0.00004014,-0.00026326,0.00044741,0.00022532,-0.
 00037657,0.00205960,0.00392260,0.00190129,0.01392278,0.01470288,-0.017
 85941,0.08411410,0.04534427,-0.12085731,0.00005067,0.00010711,0.000086
 55,-0.00011044,0.00099307,0.00002832,-0.10374773,-0.06652880,0.1345037
 1,-0.00696205,-0.00675661,-0.01606456,-0.07858389,0.00518702,-0.077421
 43,0.00349553,0.00136324,-0.00322188,0.00386760,-0.00266174,-0.0031230
 2,0.00064780,0.00020438,0.00082166,0.00010673,-0.00005250,0.00013744,0
 .00098550,-0.00007536,-0.00028538,0.00008780,0.00001830,-0.00016825,-0
 .00008169,-0.00014705,-0.00004874,0.07725522,-0.01203835,-0.00142738,-
 0.01350416,0.00486281,-0.03727254,0.00486293,0.00733728,-0.00018761,0.
 01956259,-0.00327310,0.00160244,0.00172167,-0.00027753,0.00033245,-0.0
 0067260,0.00082145,-0.00063421,-0.00081848,-0.00026240,0.00020411,0.00
 059904,0.00005547,0.00014848,0.00017095,0.00007987,0.00005735,-0.00002
 458,0.00274157,0.03702845,-0.01014118,-0.00384510,-0.00790168,-0.07702
 800,0.00579306,-0.19396324,-0.01035514,0.00843809,-0.02448581,-0.00343
 877,0.00129454,-0.00047775,-0.00010177,0.00013508,-0.00036835,0.000298
 29,0.00000168,-0.00028387,-0.00006276,0.00091916,-0.00011160,-0.000096
 39,0.00008653,0.00000861,-0.00004735,-0.00006785,0.00019430,0.10033694
 ,-0.01244980,0.22707237,-0.07715107,0.03781887,0.03633558,0.00440619,-
 0.00910724,-0.00404916,-0.00041208,-0.00020251,0.00015411,0.00365784,0
 .02637947,-0.00196515,-0.00413948,0.00240524,0.00074698,-0.01405015,0.
 01978199,0.00734045,-0.00023505,0.00004184,0.00039255,0.00002743,-0.00
 084428,-0.00057554,-0.00011056,0.00060108,-0.00034839,-0.00065300,-0.0
 0046414,-0.00003860,0.45589482,0.03925240,-0.09764150,-0.07181707,-0.0
 0384483,-0.01826746,-0.00980012,-0.00143285,-0.00507743,-0.00207927,0.
 02684490,-0.07656567,0.00809170,0.00303000,-0.00279616,-0.00049767,0.0
 0936726,-0.00402181,-0.00071703,-0.00084061,-0.00008022,0.00047543,0.0
 0054469,0.00040893,0.00077793,-0.00054136,0.00054539,-0.00088200,0.000
 46907,0.00013826,-0.00072876,-0.04282623,0.47878224,0.02863839,-0.0454
 6746,-0.08042170,-0.00325705,-0.02010242,-0.00564619,-0.00096775,-0.00
 236281,-0.00199139,-0.00052832,0.01462432,0.00225117,0.00271181,-0.001
 08789,-0.00133076,0.01097772,-0.00884637,0.00116429,-0.00017852,-0.000
 29210,-0.00015407,0.00040373,-0.00028077,-0.00028511,-0.00011479,0.000
 34601,-0.00022656,-0.00016309,0.00018579,-0.00016493,0.08948810,0.0182
 3907,0.35621119,0.00480750,0.00336938,0.02407668,-0.00042621,0.0000970
 7,-0.00026553,0.00432214,-0.00579463,-0.00802179,-0.07716561,0.0421528
 1,0.03042678,-0.01389112,0.01098972,0.01832617,-0.00411128,0.00116146,
 0.00226846,-0.00064658,-0.00015963,-0.00042813,-0.00009655,-0.00022941
 ,0.00066814,0.00002523,-0.00071124,-0.00069512,-0.00025770,0.00040221,
 -0.00003144,-0.04976529,-0.00494211,0.00244799,0.44927588,0.00504424,0
 .00363416,-0.00205803,-0.00126297,-0.00305757,-0.00277155,-0.00419475,
 -0.01251425,-0.02143919,0.03562097,-0.10344410,-0.04417862,0.01216055,
 -0.00051207,-0.00943076,0.00319708,-0.00162371,-0.00135576,-0.00006273
 ,-0.00026697,0.00026386,-0.00020678,-0.00031163,0.00054690,0.00050785,
 -0.00015792,-0.00018910,-0.00036033,-0.00011247,-0.00027638,0.00271515
 ,-0.06016416,0.04294406,0.08137376,0.37241663,0.02437058,-0.00854542,-
 0.07909885,-0.00124000,-0.00254513,-0.00399696,-0.00326207,-0.01098754
 ,-0.01131477,0.03399910,-0.07063987,-0.07460420,0.00721029,-0.00150296
 ,-0.00250470,0.00245599,-0.00070746,-0.00253118,0.00052964,-0.00062825
 ,0.00023408,-0.00047137,-0.00070537,0.00061643,0.00043561,0.00092648,0
 .00028392,-0.00079118,0.00045519,-0.00009902,-0.00729031,0.05307610,-0
 .08058332,-0.06102540,0.03827302,0.46919688,-0.00012647,0.00094838,0.0
 0010557,0.00002579,0.00022934,-0.00023547,0.00158733,0.00015175,0.0004
 2625,0.00668538,-0.00664450,-0.00882390,-0.00050968,0.00010743,0.00087
 569,0.00010442,0.00024686,0.00027714,-0.00006636,0.00038437,0.00000166
 ,-0.00011495,-0.00013756,-0.00072619,-0.00017533,-0.00033977,0.0000053
 7,0.00001330,0.00014876,0.00041840,-0.01076722,-0.00025828,-0.03062180
 ,-0.11185555,-0.04839795,-0.07296063,0.25301533,-0.00052235,0.00117408
 ,-0.00056319,-0.00066472,0.00027205,-0.00002750,0.00204038,-0.00165109
 ,-0.00215533,-0.01199007,-0.01625393,-0.02472185,-0.00038777,-0.001005
 27,0.00038559,-0.00035683,0.00106018,0.00055886,-0.00013945,0.00026907
 ,-0.00020707,-0.00003846,0.00008548,0.00004226,-0.00044911,-0.00041036
 ,0.00010940,0.00004324,0.00024899,0.00047886,0.00039927,-0.00307758,-0
 .00066706,-0.05482752,-0.06384369,-0.03695178,0.17391758,0.25451971,0.
 00114911,0.00004867,-0.00127436,-0.00028455,0.00018525,-0.00042298,0.0
 0152645,0.00020104,-0.00066431,-0.00546068,-0.01985647,-0.01932699,-0.
 00009551,-0.00083841,-0.00001284,0.00033494,-0.00013971,-0.00060484,0.
 00009999,0.00030824,-0.00016830,-0.00029339,0.00018406,-0.00031370,-0.
 00015280,-0.00009996,0.00016505,-0.00003482,0.00011228,0.00028662,-0.0
 2256484,0.01089098,-0.04587491,-0.08008966,-0.04058381,-0.14482245,0.0
 6033418,-0.03763745,0.34598469,0.00666124,-0.00985012,-0.00465085,0.00
 158065,0.00044600,-0.00001612,0.00002992,-0.00017123,0.00027104,-0.000
 15037,0.00032372,0.00092752,0.00008565,0.00035706,0.00020103,-0.000535
 81,0.00087558,-0.00006515,0.00000722,0.00044336,0.00005955,-0.00018813
 ,-0.00007287,-0.00033384,-0.00009202,-0.00073232,0.00001486,-0.0000637
 8,0.00007993,0.00037472,-0.10998085,-0.08086448,-0.03008434,-0.0093899
 7,-0.02909717,0.00580127,0.01345691,0.01267967,-0.00578798,0.25735648,
 -0.00754835,-0.02867179,-0.01718188,0.00197724,-0.00105511,0.00003381,
 -0.00039998,-0.00037296,0.00033611,0.00105354,-0.00124402,0.00056242,0
 .00026924,-0.00043373,0.00017929,-0.00020939,-0.00013395,-0.00101779,-
 0.00003144,0.00041459,0.00008080,-0.00025580,0.00013502,-0.00021839,-0
 .00028473,-0.00027204,0.00026372,0.00008042,-0.00012508,0.00039921,-0.
 08927061,-0.16076508,-0.01896913,-0.02077841,-0.04300768,0.01987612,-0
 .00137238,-0.02480565,0.03114487,0.09236651,0.33062698,-0.01047616,-0.
 02211255,-0.00688461,0.00165064,-0.00224746,-0.00125349,-0.00058796,0.
 00009964,0.00021805,-0.00071516,-0.00006466,0.00116721,-0.00041615,0.0
 0086276,0.00090794,-0.00037227,0.00017176,-0.00085802,0.00004329,0.000
 43471,0.00012706,-0.00041221,-0.00001544,-0.00036755,0.00002430,0.0001
 3385,0.00002083,-0.00014692,-0.00012758,0.00022341,-0.03495779,-0.0156
 6086,-0.04977493,0.00500628,0.00851367,-0.00732249,0.01101493,0.052154
 91,-0.04280084,0.15899080,-0.05213099,0.26553567,0.00044600,0.00119731
 ,0.00022406,-0.00046958,0.00020080,0.00019178,-0.00044295,0.00020034,0
 .00014821,0.00045378,0.00048178,0.00104117,0.00036745,0.00018312,-0.00
 016640,0.00038133,-0.00009688,0.00023565,0.00001922,-0.00021298,-0.000
 02069,0.00015781,0.00017535,0.00027918,0.00014236,0.00030039,0.0001090
 5,0.00001958,-0.00006098,-0.00020107,-0.03487829,-0.01020215,-0.028537
 80,-0.03364159,-0.03007924,-0.00195772,-0.09152873,-0.07292506,0.03924
 280,-0.09643567,0.02414479,-0.08121633,0.45510201,-0.00230328,-0.00275
 195,-0.00082206,0.00058629,-0.00073941,-0.00039326,-0.00041946,0.00018
 819,0.00010553,-0.00191285,-0.00153693,0.00016576,0.00015044,-0.000570
 30,-0.00039904,-0.00005868,-0.00123256,-0.00165380,0.00004744,0.000109
 49,0.00005399,-0.00013841,-0.00011338,-0.00027675,0.00030203,0.0001689
 7,-0.00004849,-0.00011244,-0.00004751,-0.00002904,-0.00924699,0.022794
 84,-0.01831415,-0.03357421,-0.03924024,-0.01625317,-0.06377264,-0.1070
 0766,0.05379333,0.02047854,-0.08145388,0.03981807,0.03505785,0.4161079
 7,-0.00151070,0.00035726,-0.00134975,-0.00054263,0.00029002,0.00025700
 ,0.00069315,-0.00058321,-0.00069753,-0.00199328,-0.00114263,-0.0025732
 5,-0.00008246,-0.00180064,-0.00078936,0.00015634,-0.00025203,-0.000140
 78,-0.00012576,-0.00006031,-0.00004929,0.00033990,0.00001464,0.0002242
 1,-0.00020418,-0.00034674,-0.00004266,0.00007306,0.00009005,0.00010737
 ,-0.03200067,-0.03002677,-0.03033106,-0.00054954,-0.00459575,0.0304669
 5,0.03371544,0.04731882,-0.10285370,-0.07125127,0.04641177,-0.12350078
 ,0.02601373,0.05483153,0.39117946,0.00002174,0.00008241,0.00013393,-0.
 00007484,0.00009475,0.00006235,-0.00007468,0.00007943,0.00008008,0.000
 00185,0.00015256,0.00004929,-0.00002840,-0.00042731,-0.00029520,-0.000
 03209,-0.00038469,-0.00035869,0.00000903,-0.00004989,0.00000710,0.0000
 9795,0.00000740,0.00004696,0.00009619,0.00004767,-0.00000651,0.0000073
 1,-0.00000318,-0.00005076,-0.00143335,0.00051663,-0.00062657,-0.001354
 60,-0.00060604,0.00054133,-0.02432516,-0.00803734,0.01648105,-0.025893
 02,0.01415328,-0.01096773,-0.16020031,0.05526013,0.04762505,0.21321133
 ,-0.00033905,-0.00002656,0.00003800,0.00008954,-0.00005811,-0.00001200
 ,0.00009950,-0.00003072,-0.00000354,0.00033053,-0.00012259,0.00007569,
 -0.00014462,-0.00091553,-0.00017072,-0.00006916,-0.00013369,-0.0007365
 4,-0.00003275,-0.00000136,0.00002700,0.00002503,-0.00021496,-0.0000425
 8,0.00004441,-0.00001683,-0.00015097,-0.00001584,0.00002145,0.00000375
 ,0.00061065,-0.00142997,-0.00070681,-0.00127030,0.00165052,0.00363534,
 -0.02218620,-0.00269134,0.00928525,0.01373347,-0.00082128,0.00771236,0
 .06003404,-0.05871599,-0.02746508,-0.06496517,0.06985962,0.00040515,0.
 00006060,-0.00015869,0.00008365,0.00000239,-0.00003141,0.00007092,-0.0
 0001764,-0.00005894,-0.00041887,0.00004781,-0.00004260,-0.00002221,-0.
 00056157,0.00006813,-0.00014775,-0.00033261,-0.00070991,-0.00000902,0.
 00000938,0.00001514,0.00004162,-0.00010781,0.00002223,0.00001046,-0.00
 008542,-0.00017413,-0.00003101,0.00002147,-0.00000594,-0.00145987,0.00
 425491,0.00107432,0.00091318,-0.00133888,-0.00208485,0.01908755,0.0085
 8704,-0.00518070,-0.02536047,0.00809290,-0.00548278,0.05148725,-0.0273
 6095,-0.04964434,-0.05617642,0.01965628,0.06444209,-0.00028802,-0.0001
 4854,-0.00008557,0.00003248,-0.00014283,-0.00002396,0.00002724,-0.0000
 4980,-0.00013273,-0.00027359,-0.00012132,-0.00010951,-0.00002963,0.000
 12762,0.00012414,-0.00002937,0.00015154,0.00009970,0.00000048,0.000013
 17,0.00000930,0.00001302,-0.00005633,-0.00000855,0.00001180,-0.0000209
 3,-0.00005346,0.00000032,0.00001124,0.00001089,-0.00005754,0.00072160,
 -0.00240523,0.00000375,-0.00207079,0.00110303,-0.00419411,-0.01869811,
 -0.00623268,-0.00482897,-0.01068477,-0.01749031,-0.03386527,0.00185658
 ,0.00144360,0.00038383,0.01422004,0.01163743,0.04334402,0.00019181,0.0
 0013774,-0.00000266,-0.00008238,0.00004199,0.00008981,0.00001986,-0.00
 001020,-0.00007702,-0.00036711,0.00004834,-0.00025353,0.00002055,0.000
 08738,0.00009042,-0.00001091,-0.00004743,0.00006635,-0.00001265,-0.000
 05439,0.00000197,0.00003003,-0.00006005,-0.00001280,0.00003757,0.00001
 563,-0.00006354,-0.00000651,0.00001373,-0.00005231,-0.00000079,-0.0017
 2243,0.00174230,0.00056671,-0.00352000,0.00186256,-0.01535561,-0.02999
 606,-0.00797526,-0.00083356,0.00760725,-0.00428156,-0.00331304,-0.1415
 6293,-0.08488961,0.00418627,-0.00618825,-0.01034490,0.01520488,0.17480
 825,-0.00040211,-0.00027733,0.00011472,0.00003905,-0.00008457,-0.00001
 302,-0.00009056,0.00010026,0.00004439,0.00028360,0.00002328,0.00018963
 ,-0.00001773,0.00003451,-0.00008332,0.00002347,0.00011635,0.00005117,-
 0.00000225,-0.00003818,0.00002443,0.00003376,-0.00004531,0.00003109,0.
 00002144,-0.00002787,-0.00004337,-0.00001278,-0.00001311,-0.00004352,0
 .00045378,0.00147494,-0.00425245,-0.00020651,0.00217181,-0.00251620,0.
 00280385,0.00414813,0.01038371,-0.01585294,-0.01611724,-0.02658469,-0.
 00273874,-0.08500237,-0.10525393,0.00351986,-0.01056373,-0.00213729,0.
 01235152,0.10415596,0.12965048,-0.00013864,0.00049256,0.00033430,0.000
 02432,-0.00024932,-0.00000668,-0.00016981,-0.00030562,-0.00014551,-0.0
 1196933,0.00526515,0.01409369,0.00012633,0.00004520,0.00043059,-0.0001
 1007,-0.00013856,-0.00010221,0.00006114,0.00008643,-0.00014981,-0.0000
 0507,0.00010149,-0.00002815,-0.00002611,-0.00005475,0.00004863,0.00004
 573,-0.00003083,0.00003445,0.00087504,-0.00300221,0.00462313,-0.155918
 02,-0.02862421,0.07688497,-0.03248307,-0.01966708,-0.00013385,0.001229
 86,0.00193631,-0.00082208,-0.00286735,0.00052961,-0.00295330,-0.000198
 26,-0.00034231,0.00026364,-0.00012295,-0.00031385,0.00011707,0.2010010
 3,0.00009645,-0.00023012,0.00018766,-0.00013041,0.00023431,0.00009817,
 0.00052971,0.00023388,0.00029305,0.01618630,-0.00088591,-0.01191865,-0
 .00011128,-0.00100824,-0.00149150,0.00029705,0.00013774,0.00007370,0.0
 0014338,0.00004547,-0.00014073,-0.00004150,0.00010368,-0.00011029,-0.0
 0013079,0.00014085,0.00014460,0.00003811,0.00002954,0.00002478,-0.0109
 0443,-0.00400814,0.01064769,-0.02888664,-0.03918797,0.02201646,-0.0183
 6666,-0.00657414,-0.00077887,-0.00061369,-0.00094128,-0.00029891,-0.00
 223182,0.00012658,-0.00052278,-0.00008603,-0.00033234,0.00010254,-0.00
 005791,-0.00002036,0.00015114,0.04439749,0.05204413,0.00036206,-0.0004
 1674,-0.00144168,-0.00000607,-0.00000428,-0.00001720,0.00006277,-0.000
 34391,-0.00023566,0.01502666,-0.00629273,-0.00865983,-0.00045653,-0.00
 016376,-0.00061302,0.00002727,0.00019485,-0.00016233,0.00001489,-0.000
 13998,0.00004056,0.00000661,-0.00004354,0.00003774,0.00002255,0.000073
 74,0.00002268,0.00000326,-0.00005034,-0.00008247,0.01322072,0.00907093
 ,-0.01140481,0.08106934,0.02460757,-0.08142875,-0.01488372,-0.01041669
 ,0.00878055,0.00076087,0.00186299,-0.00062442,-0.00253847,0.00130360,-
 0.00477626,0.00002355,-0.00057165,0.00028687,-0.00023109,-0.00011066,0
 .00043731,-0.09236626,-0.01875444,0.09984263,-0.01226183,0.01462056,0.
 00267405,-0.00016269,-0.00019432,-0.00025293,0.00001658,-0.00005461,-0
 .00023846,-0.00014526,0.00046881,0.00041268,-0.00010478,-0.00012578,-0
 .00011470,0.00012549,0.00041421,-0.00006264,0.00004482,0.00003126,-0.0
 0003719,-0.00003196,0.00003810,-0.00006233,-0.00000306,-0.00000900,0.0
 0010919,0.00006971,-0.00012997,0.00011940,-0.16122596,0.06801047,-0.04
 180470,0.00008682,0.00434442,-0.00433174,0.00125650,-0.00037783,0.0019
 6203,-0.03285103,-0.00514613,-0.01815023,-0.00275934,-0.00273018,0.001
 15294,-0.00021440,0.00017823,-0.00037517,-0.00012746,0.00003870,-0.000
 32382,0.00064500,-0.00012749,-0.00011855,0.20764255,0.01795751,-0.0113
 4058,-0.00433425,0.00016669,-0.00022632,-0.00025588,-0.00003191,0.0000
 1109,0.00003868,0.00039742,-0.00141782,-0.00016078,0.00009476,-0.00009
 511,0.00023957,-0.00045073,-0.00096915,-0.00016136,0.00001313,-0.00008
 191,-0.00002746,-0.00000511,0.00007315,0.00008719,-0.00000308,0.000008
 95,-0.00002106,0.00004300,-0.00001839,-0.00012541,0.07211496,-0.067051
 52,0.02836828,0.01106122,-0.00673608,0.00934749,0.00069516,-0.00031306
 ,0.00175564,-0.01954979,0.00532035,-0.01296248,-0.00285216,-0.00452370
 ,0.00237183,-0.00002084,0.00016781,-0.00068563,-0.00025523,0.00042126,
 -0.00020637,-0.00012572,0.00009219,0.00019534,-0.07924951,0.08667850,0
 .01327624,-0.00964903,0.00208755,0.00050673,0.00040732,0.00021731,-0.0
 0012445,0.00014421,0.00021383,0.00000684,0.00043354,-0.00024763,0.0002
 8670,0.00013271,0.00006535,-0.00000194,-0.00151148,-0.00065145,0.00003
 509,0.00004881,0.00002994,-0.00013273,0.00015546,0.00009630,-0.0000364
 7,-0.00009083,0.00013035,0.00014072,-0.00012116,0.00009575,-0.04288035
 ,0.02586061,-0.04825766,-0.01388843,0.01089852,-0.00788844,-0.00081593
 ,-0.00043841,-0.00127921,-0.01400131,-0.00361029,-0.00274550,-0.001594
 56,0.00048235,-0.00023408,-0.00008883,-0.00001019,-0.00019712,-0.00000
 639,0.00005459,0.00000016,-0.00012297,0.00027596,-0.00000244,0.0594419
 1,-0.02346307,0.05856672||0.00000019,-0.00000201,0.00000243,-0.0000000
 7,-0.00000023,0.00000082,0.00000029,0.00000054,-0.00000085,-0.00000005
 ,0.00000124,-0.00000147,0.00000080,-0.00000024,-0.00000101,-0.00000036
 ,0.00000013,-0.00000040,0.,-0.00000005,0.00000022,-0.00000040,-0.00000
 006,0.00000065,0.00000018,0.00000021,0.00000021,-0.00000007,-0.0000000
 1,-0.00000002,0.00000027,0.00000070,0.00000017,-0.00000087,-0.00000025
 ,0.00000005,0.00000003,-0.00000024,-0.00000034,-0.00000010,0.00000022,
 -0.00000054,0.00000064,0.00000001,0.00000017,-0.00000049,0.00000001,-0
 .00000012,-0.00000019,0.,-0.00000004,0.00000010,-0.00000030,0.00000011
 ,0.00000011,0.00000031,-0.00000006|||@
 The archive entry for this job was punched.


 HEAVEN'S NET CASTS WIDE.
 THOUGH ITS MESHES ARE COARSE, NOTHING SLIPS THROUGH.

                                          -- LAO-TSU
 Job cpu time:       0 days  0 hours  0 minutes  6.0 seconds.
 Elapsed time:       0 days  0 hours  0 minutes  4.0 seconds.
 File lengths (MBytes):  RWF=     24 Int=      0 D2E=      0 Chk=      2 Scr=      1
 Normal termination of Gaussian 16 at Thu Nov 13 15:03:22 2025.
