 Default is to use a total of   8 processors:
                                8 via shared-memory
                                1 via Linda
 Entering Link 1 = C:\G16W\l1.exe PID=     15556.
  
 Copyright (c) 1988-2019, Gaussian, Inc.  All Rights Reserved.
  
 This is part of the Gaussian(R) 16 program.  It is based on
 the Gaussian(R) 09 system (copyright 2009, Gaussian, Inc.),
 the Gaussian(R) 03 system (copyright 2003, Gaussian, Inc.),
 the Gaussian(R) 98 system (copyright 1998, Gaussian, Inc.),
 the Gaussian(R) 94 system (copyright 1995, Gaussian, Inc.),
 the Gaussian 92(TM) system (copyright 1992, Gaussian, Inc.),
 the Gaussian 90(TM) system (copyright 1990, Gaussian, Inc.),
 the Gaussian 88(TM) system (copyright 1988, Gaussian, Inc.),
 the Gaussian 86(TM) system (copyright 1986, Carnegie Mellon
 University), and the Gaussian 82(TM) system (copyright 1983,
 Carnegie Mellon University). Gaussian is a federally registered
 trademark of Gaussian, Inc.
  
 This software contains proprietary and confidential information,
 including trade secrets, belonging to Gaussian, Inc.
  
 This software is provided under written license and may be
 used, copied, transmitted, or stored only in accord with that
 written license.
  
 The following legend is applicable only to US Government
 contracts under FAR:
  
                    RESTRICTED RIGHTS LEGEND
  
 Use, reproduction and disclosure by the US Government is
 subject to restrictions as set forth in subparagraphs (a)
 and (c) of the Commercial Computer Software - Restricted
 Rights clause in FAR 52.227-19.
  
 Gaussian, Inc.
 340 Quinnipiac St., Bldg. 40, Wallingford CT 06492
  
  
 ---------------------------------------------------------------
 Warning -- This program may not be used in any manner that
 competes with the business of Gaussian, Inc. or will provide
 assistance to any competitor of Gaussian, Inc.  The licensee
 of this program is prohibited from giving any competitor of
 Gaussian, Inc. access to this program.  By using this program,
 the user acknowledges that Gaussian, Inc. is engaged in the
 business of creating and licensing software in the field of
 computational chemistry and represents and warrants to the
 licensee that it is not a competitor of Gaussian, Inc. and that
 it will not use this program in any manner prohibited above.
 ---------------------------------------------------------------
  

 Cite this work as:
 Gaussian 16, Revision C.01,
 M. J. Frisch, G. W. Trucks, H. B. Schlegel, G. E. Scuseria, 
 M. A. Robb, J. R. Cheeseman, G. Scalmani, V. Barone, 
 G. A. Petersson, H. Nakatsuji, X. Li, M. Caricato, A. V. Marenich, 
 J. Bloino, B. G. Janesko, R. Gomperts, B. Mennucci, H. P. Hratchian, 
 J. V. Ortiz, A. F. Izmaylov, J. L. Sonnenberg, D. Williams-Young, 
 F. Ding, F. Lipparini, F. Egidi, J. Goings, B. Peng, A. Petrone, 
 T. Henderson, D. Ranasinghe, V. G. Zakrzewski, J. Gao, N. Rega, 
 G. Zheng, W. Liang, M. Hada, M. Ehara, K. Toyota, R. Fukuda, 
 J. Hasegawa, M. Ishida, T. Nakajima, Y. Honda, O. Kitao, H. Nakai, 
 T. Vreven, K. Throssell, J. A. Montgomery, Jr., J. E. Peralta, 
 F. Ogliaro, M. J. Bearpark, J. J. Heyd, E. N. Brothers, K. N. Kudin, 
 V. N. Staroverov, T. A. Keith, R. Kobayashi, J. Normand, 
 K. Raghavachari, A. P. Rendell, J. C. Burant, S. S. Iyengar, 
 J. Tomasi, M. Cossi, J. M. Millam, M. Klene, C. Adamo, R. Cammi, 
 J. W. Ochterski, R. L. Martin, K. Morokuma, O. Farkas, 
 J. B. Foresman, and D. J. Fox, Gaussian, Inc., Wallingford CT, 2019.
 
 ******************************************
 Gaussian 16:  EM64W-G16RevC.01 30-May-2019
                15-Nov-2025 
 ******************************************
 %chk=C:\Users\al6323\OneDrive - Imperial College London\Desktop\TSR20251115\Exer
 cise 2\Product_PM6_exo.chk
 Default route: MaxDisk=10GB
 ----------------------------------------------------------------------
 # opt=(calcfc,tight,maxcycles=200,maxstep=4) freq pm6 nosymm geom=conn
 ectivity scf=(xqc,tight)
 ----------------------------------------------------------------------
 1/6=200,7=10,8=4,10=4,18=20,19=15,26=1,38=1,57=2/1,3;
 2/9=110,12=2,15=1,17=6,18=5,40=1/2;
 3/5=2,25=1,41=3900000,71=2,140=1/1,2,3;
 4/35=1/1;
 5/5=2,8=3,13=1,32=2,35=1,38=5/2,8;
 8/6=4,10=90,11=11/1;
 11/6=1,8=1,9=11,15=111,16=1,31=1/1,2,10;
 10/6=1,13=1,31=1/2;
 6/7=2,8=2,9=2,10=2,28=1/1;
 7/10=1,25=1,30=1/1,2,3,16;
 1/6=200,7=10,8=4,10=4,18=20,19=15,26=1/3(2);
 2/9=110,15=1/2;
 99//99;
 2/9=110,15=1/2;
 3/5=2,25=1,41=3900000,71=1,135=20/1,2,3;
 4/5=5,16=3,35=1/1;
 5/5=2,8=3,13=1,32=2,35=1,38=5/2,8;
 7/30=1/1,2,3,16;
 1/6=200,7=10,8=4,18=20,19=15,26=1/3(-5);
 2/9=110,15=1/2;
 6/7=2,8=2,9=2,10=2,19=2,28=1/1;
 99/9=1/99;
 -------------------
 Title Card Required
 -------------------
 Symbolic Z-matrix:
 Charge =  0 Multiplicity = 1
 C                    -0.77797   0.61073   0.43093 
 C                     0.70666   0.32282   0.33599 
 C                     0.91408   1.51801  -0.62003 
 C                    -0.60073   1.68506  -0.89195 
 C                    -1.30698   2.66266   0.08898 
 C                    -1.38446   1.80802   1.16167 
 H                     1.24535   2.41216  -0.1346 
 H                    -1.62198   3.67832  -0.02976 
 H                    -1.7523    1.93365   2.15857 
 H                     1.33832   0.33828   1.19952 
 C                    -1.74858  -0.11673  -0.54823 
 C                    -1.34365   0.69717  -1.76004 
 O                    -0.44877  -0.14494  -2.48804 
 O                    -1.45223  -1.45779  -0.8635 
 C                    -0.16524  -1.14853  -1.48111 
 H                     0.28194  -2.01701  -1.91775 
 H                     0.49864  -0.74978  -0.74276 
 H                    -2.10254   1.04247  -2.43066 
 H                    -2.74601   0.00682  -0.18113 
 H                     0.82063  -0.64062  -0.11535 
 H                     1.59814   1.31855  -1.41826 
 

 GradGradGradGradGradGradGradGradGradGradGradGradGradGradGradGradGradGrad
 Berny optimization.
 Initialization pass.
                           ----------------------------
                           !    Initial Parameters    !
                           ! (Angstroms and Degrees)  !
 --------------------------                            --------------------------
 ! Name  Definition              Value          Derivative Info.                !
 --------------------------------------------------------------------------------
 ! R1    R(1,2)                  1.5153         calculate D2E/DX2 analytically  !
 ! R2    R(1,6)                  1.5282         calculate D2E/DX2 analytically  !
 ! R3    R(1,11)                 1.5588         calculate D2E/DX2 analytically  !
 ! R4    R(2,3)                  1.5445         calculate D2E/DX2 analytically  !
 ! R5    R(2,10)                 1.07           calculate D2E/DX2 analytically  !
 ! R6    R(2,20)                 1.07           calculate D2E/DX2 analytically  !
 ! R7    R(3,4)                  1.5481         calculate D2E/DX2 analytically  !
 ! R8    R(3,7)                  1.07           calculate D2E/DX2 analytically  !
 ! R9    R(3,21)                 1.07           calculate D2E/DX2 analytically  !
 ! R10   R(4,5)                  1.5546         calculate D2E/DX2 analytically  !
 ! R11   R(4,12)                 1.5104         calculate D2E/DX2 analytically  !
 ! R12   R(5,6)                  1.3737         calculate D2E/DX2 analytically  !
 ! R13   R(5,8)                  1.07           calculate D2E/DX2 analytically  !
 ! R14   R(6,9)                  1.07           calculate D2E/DX2 analytically  !
 ! R15   R(11,12)                1.5149         calculate D2E/DX2 analytically  !
 ! R16   R(11,14)                1.4091         calculate D2E/DX2 analytically  !
 ! R17   R(11,19)                1.07           calculate D2E/DX2 analytically  !
 ! R18   R(12,13)                1.4283         calculate D2E/DX2 analytically  !
 ! R19   R(12,18)                1.07           calculate D2E/DX2 analytically  !
 ! R20   R(13,15)                1.4496         calculate D2E/DX2 analytically  !
 ! R21   R(14,15)                1.4606         calculate D2E/DX2 analytically  !
 ! R22   R(15,16)                1.07           calculate D2E/DX2 analytically  !
 ! R23   R(15,17)                1.07           calculate D2E/DX2 analytically  !
 ! A1    A(2,1,6)              124.5878         calculate D2E/DX2 analytically  !
 ! A2    A(2,1,11)             118.818          calculate D2E/DX2 analytically  !
 ! A3    A(6,1,11)             114.7635         calculate D2E/DX2 analytically  !
 ! A4    A(1,2,3)               91.3366         calculate D2E/DX2 analytically  !
 ! A5    A(1,2,10)             121.674          calculate D2E/DX2 analytically  !
 ! A6    A(1,2,20)             107.5696         calculate D2E/DX2 analytically  !
 ! A7    A(3,2,10)             114.147          calculate D2E/DX2 analytically  !
 ! A8    A(3,2,20)             114.9208         calculate D2E/DX2 analytically  !
 ! A9    A(10,2,20)            106.8914         calculate D2E/DX2 analytically  !
 ! A10   A(2,3,4)               93.4872         calculate D2E/DX2 analytically  !
 ! A11   A(2,3,7)              114.0434         calculate D2E/DX2 analytically  !
 ! A12   A(2,3,21)             113.7894         calculate D2E/DX2 analytically  !
 ! A13   A(4,3,7)              107.0055         calculate D2E/DX2 analytically  !
 ! A14   A(4,3,21)             120.9739         calculate D2E/DX2 analytically  !
 ! A15   A(7,3,21)             107.235          calculate D2E/DX2 analytically  !
 ! A16   A(3,4,5)              113.6761         calculate D2E/DX2 analytically  !
 ! A17   A(3,4,12)             120.7747         calculate D2E/DX2 analytically  !
 ! A18   A(5,4,12)             123.4009         calculate D2E/DX2 analytically  !
 ! A19   A(4,5,6)               97.303          calculate D2E/DX2 analytically  !
 ! A20   A(4,5,8)              131.3486         calculate D2E/DX2 analytically  !
 ! A21   A(6,5,8)              131.3455         calculate D2E/DX2 analytically  !
 ! A22   A(1,6,5)               95.2586         calculate D2E/DX2 analytically  !
 ! A23   A(1,6,9)              132.3714         calculate D2E/DX2 analytically  !
 ! A24   A(5,6,9)              132.3664         calculate D2E/DX2 analytically  !
 ! A25   A(1,11,12)             94.8938         calculate D2E/DX2 analytically  !
 ! A26   A(1,11,14)            116.9819         calculate D2E/DX2 analytically  !
 ! A27   A(1,11,19)            108.1211         calculate D2E/DX2 analytically  !
 ! A28   A(12,11,14)           106.0288         calculate D2E/DX2 analytically  !
 ! A29   A(12,11,19)           117.4891         calculate D2E/DX2 analytically  !
 ! A30   A(14,11,19)           112.5006         calculate D2E/DX2 analytically  !
 ! A31   A(4,12,11)             91.3251         calculate D2E/DX2 analytically  !
 ! A32   A(4,12,13)            111.7402         calculate D2E/DX2 analytically  !
 ! A33   A(4,12,18)            119.867          calculate D2E/DX2 analytically  !
 ! A34   A(11,12,13)           104.9776         calculate D2E/DX2 analytically  !
 ! A35   A(11,12,18)           119.0232         calculate D2E/DX2 analytically  !
 ! A36   A(13,12,18)           108.3722         calculate D2E/DX2 analytically  !
 ! A37   A(12,13,15)           100.1758         calculate D2E/DX2 analytically  !
 ! A38   A(11,14,15)            94.4968         calculate D2E/DX2 analytically  !
 ! A39   A(13,15,14)           105.5427         calculate D2E/DX2 analytically  !
 ! A40   A(13,15,16)           111.1124         calculate D2E/DX2 analytically  !
 ! A41   A(13,15,17)           110.0396         calculate D2E/DX2 analytically  !
 ! A42   A(14,15,16)           111.6501         calculate D2E/DX2 analytically  !
 ! A43   A(14,15,17)           109.5007         calculate D2E/DX2 analytically  !
 ! A44   A(16,15,17)           108.9517         calculate D2E/DX2 analytically  !
 ! D1    D(6,1,2,3)            -70.8312         calculate D2E/DX2 analytically  !
 ! D2    D(6,1,2,10)            48.8518         calculate D2E/DX2 analytically  !
 ! D3    D(6,1,2,20)           172.4577         calculate D2E/DX2 analytically  !
 ! D4    D(11,1,2,3)            92.9245         calculate D2E/DX2 analytically  !
 ! D5    D(11,1,2,10)         -147.3924         calculate D2E/DX2 analytically  !
 ! D6    D(11,1,2,20)          -23.7865         calculate D2E/DX2 analytically  !
 ! D7    D(2,1,6,5)             87.3432         calculate D2E/DX2 analytically  !
 ! D8    D(2,1,6,9)            -93.2929         calculate D2E/DX2 analytically  !
 ! D9    D(11,1,6,5)           -76.998          calculate D2E/DX2 analytically  !
 ! D10   D(11,1,6,9)           102.3659         calculate D2E/DX2 analytically  !
 ! D11   D(2,1,11,12)          -73.2863         calculate D2E/DX2 analytically  !
 ! D12   D(2,1,11,14)           37.481          calculate D2E/DX2 analytically  !
 ! D13   D(2,1,11,19)          165.685          calculate D2E/DX2 analytically  !
 ! D14   D(6,1,11,12)           92.0223         calculate D2E/DX2 analytically  !
 ! D15   D(6,1,11,14)         -157.2104         calculate D2E/DX2 analytically  !
 ! D16   D(6,1,11,19)          -29.0064         calculate D2E/DX2 analytically  !
 ! D17   D(1,2,3,4)            -13.6597         calculate D2E/DX2 analytically  !
 ! D18   D(1,2,3,7)             96.7071         calculate D2E/DX2 analytically  !
 ! D19   D(1,2,3,21)          -139.841          calculate D2E/DX2 analytically  !
 ! D20   D(10,2,3,4)          -139.5371         calculate D2E/DX2 analytically  !
 ! D21   D(10,2,3,7)           -29.1703         calculate D2E/DX2 analytically  !
 ! D22   D(10,2,3,21)           94.2816         calculate D2E/DX2 analytically  !
 ! D23   D(20,2,3,4)            96.4482         calculate D2E/DX2 analytically  !
 ! D24   D(20,2,3,7)          -153.185          calculate D2E/DX2 analytically  !
 ! D25   D(20,2,3,21)          -29.7331         calculate D2E/DX2 analytically  !
 ! D26   D(2,3,4,5)             90.6655         calculate D2E/DX2 analytically  !
 ! D27   D(2,3,4,12)           -73.2224         calculate D2E/DX2 analytically  !
 ! D28   D(7,3,4,5)            -25.7888         calculate D2E/DX2 analytically  !
 ! D29   D(7,3,4,12)           170.3234         calculate D2E/DX2 analytically  !
 ! D30   D(21,3,4,5)          -148.8096         calculate D2E/DX2 analytically  !
 ! D31   D(21,3,4,12)           47.3026         calculate D2E/DX2 analytically  !
 ! D32   D(3,4,5,6)            -77.2708         calculate D2E/DX2 analytically  !
 ! D33   D(3,4,5,8)            102.1496         calculate D2E/DX2 analytically  !
 ! D34   D(12,4,5,6)            86.1337         calculate D2E/DX2 analytically  !
 ! D35   D(12,4,5,8)           -94.4458         calculate D2E/DX2 analytically  !
 ! D36   D(3,4,12,11)           93.4198         calculate D2E/DX2 analytically  !
 ! D37   D(3,4,12,13)          -13.2904         calculate D2E/DX2 analytically  !
 ! D38   D(3,4,12,18)         -141.6273         calculate D2E/DX2 analytically  !
 ! D39   D(5,4,12,11)          -68.8557         calculate D2E/DX2 analytically  !
 ! D40   D(5,4,12,13)         -175.5658         calculate D2E/DX2 analytically  !
 ! D41   D(5,4,12,18)           56.0973         calculate D2E/DX2 analytically  !
 ! D42   D(4,5,6,1)             -2.9883         calculate D2E/DX2 analytically  !
 ! D43   D(4,5,6,9)            177.6477         calculate D2E/DX2 analytically  !
 ! D44   D(8,5,6,1)            177.5912         calculate D2E/DX2 analytically  !
 ! D45   D(8,5,6,9)             -1.7728         calculate D2E/DX2 analytically  !
 ! D46   D(1,11,12,4)          -11.9676         calculate D2E/DX2 analytically  !
 ! D47   D(1,11,12,13)         100.9692         calculate D2E/DX2 analytically  !
 ! D48   D(1,11,12,18)        -137.5935         calculate D2E/DX2 analytically  !
 ! D49   D(14,11,12,4)        -131.8609         calculate D2E/DX2 analytically  !
 ! D50   D(14,11,12,13)        -18.9241         calculate D2E/DX2 analytically  !
 ! D51   D(14,11,12,18)        102.5132         calculate D2E/DX2 analytically  !
 ! D52   D(19,11,12,4)         101.3886         calculate D2E/DX2 analytically  !
 ! D53   D(19,11,12,13)       -145.6746         calculate D2E/DX2 analytically  !
 ! D54   D(19,11,12,18)        -24.2374         calculate D2E/DX2 analytically  !
 ! D55   D(1,11,14,15)         -61.9763         calculate D2E/DX2 analytically  !
 ! D56   D(12,11,14,15)         42.2568         calculate D2E/DX2 analytically  !
 ! D57   D(19,11,14,15)        171.9611         calculate D2E/DX2 analytically  !
 ! D58   D(4,12,13,15)          83.2127         calculate D2E/DX2 analytically  !
 ! D59   D(11,12,13,15)        -14.3987         calculate D2E/DX2 analytically  !
 ! D60   D(18,12,13,15)       -142.5726         calculate D2E/DX2 analytically  !
 ! D61   D(12,13,15,14)         43.3032         calculate D2E/DX2 analytically  !
 ! D62   D(12,13,15,16)        164.4936         calculate D2E/DX2 analytically  !
 ! D63   D(12,13,15,17)        -74.7485         calculate D2E/DX2 analytically  !
 ! D64   D(11,14,15,13)        -53.9238         calculate D2E/DX2 analytically  !
 ! D65   D(11,14,15,16)       -174.764          calculate D2E/DX2 analytically  !
 ! D66   D(11,14,15,17)         64.4887         calculate D2E/DX2 analytically  !
 --------------------------------------------------------------------------------
 Trust Radius=4.00D-02 FncErr=1.00D-07 GrdErr=1.00D-07 EigMax=2.50D+02 EigMin=1.00D-04
 Number of steps in this run=    126 maximum allowed number of steps=    126.
 GradGradGradGradGradGradGradGradGradGradGradGradGradGradGradGradGradGrad

                          Input orientation:                          
 ---------------------------------------------------------------------
 Center     Atomic      Atomic             Coordinates (Angstroms)
 Number     Number       Type             X           Y           Z
 ---------------------------------------------------------------------
      1          6           0       -0.777974    0.610726    0.430932
      2          6           0        0.706664    0.322817    0.335994
      3          6           0        0.914078    1.518006   -0.620027
      4          6           0       -0.600733    1.685057   -0.891952
      5          6           0       -1.306983    2.662656    0.088979
      6          6           0       -1.384456    1.808019    1.161674
      7          1           0        1.245349    2.412164   -0.134599
      8          1           0       -1.621979    3.678322   -0.029760
      9          1           0       -1.752295    1.933648    2.158575
     10          1           0        1.338318    0.338282    1.199518
     11          6           0       -1.748577   -0.116729   -0.548226
     12          6           0       -1.343647    0.697166   -1.760036
     13          8           0       -0.448766   -0.144943   -2.488042
     14          8           0       -1.452230   -1.457788   -0.863502
     15          6           0       -0.165242   -1.148526   -1.481109
     16          1           0        0.281937   -2.017014   -1.917755
     17          1           0        0.498640   -0.749780   -0.742757
     18          1           0       -2.102543    1.042471   -2.430663
     19          1           0       -2.746009    0.006823   -0.181126
     20          1           0        0.820628   -0.640616   -0.115349
     21          1           0        1.598136    1.318548   -1.418263
 ---------------------------------------------------------------------
                    Distance matrix (angstroms):
                    1          2          3          4          5
     1  C    0.000000
     2  C    1.515274   0.000000
     3  C    2.188769   1.544498   0.000000
     4  C    1.713366   2.252296   1.548064   0.000000
     5  C    2.146438   3.096875   2.597311   1.554578   0.000000
     6  C    1.528173   2.694504   2.922639   2.201527   1.373711
     7  H    2.767461   2.208396   1.070000   2.123744   2.574322
     8  H    3.214767   4.100704   3.383337   2.399880   1.070000
     9  H    2.384150   3.458765   3.873362   3.270108   2.238969
    10  H    2.267960   1.070000   2.209631   3.154040   3.692374
    11  C    1.558849   2.646366   3.125259   2.163822   2.885483
    12  C    2.264464   2.955884   2.659082   1.510436   2.698768
    13  O    3.033121   3.086907   2.848197   2.433002   3.906429
    14  O    2.531587   3.044695   3.809730   3.256276   4.231593
    15  C    2.669515   2.495382   3.002796   2.926764   4.277131
    16  H    3.680320   3.276367   3.818385   3.941663   5.333943
    17  H    2.204148   1.535397   2.308789   2.675689   3.949276
    18  H    3.182705   4.007984   3.550287   2.244099   3.099438
    19  H    2.147668   3.505455   3.984036   2.814952   3.032689
    20  H    2.102334   1.070000   2.218801   2.834102   3.934473
    21  H    3.092965   2.205362   1.070000   2.290493   3.538095
                    6          7          8          9         10
     6  C    0.000000
     7  H    2.993525   0.000000
     8  H    2.230239   3.136195   0.000000
     9  H    1.070000   3.804405   2.801728   0.000000
    10  H    3.094359   2.467691   4.629293   3.607890   0.000000
    11  C    2.600191   3.940810   3.832394   3.395707   3.576390
    12  C    3.126027   3.505162   3.458123   4.129333   4.010074
    13  O    4.243819   3.866202   4.694352   5.254596   4.126169
    14  O    3.843361   4.773339   5.206109   4.552452   3.907567
    15  C    4.148727   4.059725   5.246614   5.026513   3.414243
    16  H    5.185616   4.870875   6.294940   6.030115   4.047314
    17  H    3.703409   3.305348   4.961198   4.548101   2.379364
    18  H    3.742539   4.284431   3.597637   4.688067   5.051101
    19  H    2.627022   4.660341   3.842689   3.189721   4.324092
    20  H    3.533977   3.082243   4.962547   4.291561   1.719046
    21  H    3.973853   1.722860   4.226774   4.939383   2.807348
                   11         12         13         14         15
    11  C    0.000000
    12  C    1.514885   0.000000
    13  O    2.335207   1.428269   0.000000
    14  O    1.409135   2.336534   2.317247   0.000000
    15  C    2.107563   2.207491   1.449647   1.460623   0.000000
    16  H    3.099948   3.167676   2.088971   2.105117   1.070000
    17  H    2.342771   2.553924   2.075915   2.078881   1.070000
    18  H    2.238884   1.070000   2.036719   3.021622   3.074939
    19  H    1.070000   2.221745   3.259175   2.069925   3.112097
    20  H    2.657565   3.029643   2.736188   2.528514   1.759321
    21  H    3.743991   3.026055   2.734235   4.161795   3.033135
                   16         17         18         19         20
    16  H    0.000000
    17  H    1.741683   0.000000
    18  H    3.912705   3.581528   0.000000
    19  H    4.034880   3.378702   2.558717   0.000000
    20  H    2.330949   0.713606   4.091257   3.625521   0.000000
    21  H    3.620476   2.437865   3.846582   4.703481   2.477989
                   21
    21  H    0.000000
 Symmetry turned off by external request.
 Stoichiometry    C9H10O2
 Framework group  C1[X(C9H10O2)]
 Deg. of freedom    57
 Full point group                 C1      NOp   1
 Rotational constants (GHZ):           2.2006500           1.2514395           1.1860712
 Standard basis: VSTO-6G (5D, 7F)
    54 basis functions,   324 primitive gaussians,    54 cartesian basis functions
    29 alpha electrons       29 beta electrons
       nuclear repulsion energy       375.8613865108 Hartrees.
 Integral buffers will be    131072 words long.
 Regular integral format.
 Two-electron integral symmetry is turned off.
 Do NDO integrals.
 One-electron integrals computed using PRISM.
 NBasis=    54 RedAO= F EigKep=  0.00D+00  NBF=    54
 NBsUse=    54 1.00D-04 EigRej=  0.00D+00 NBFU=    54
 Simple Huckel Guess.
 Keep J ints in memory in canonical form, NReq=867381.
 Overlap will be assumed to be unity.
 Requested convergence on RMS density matrix=1.00D-08 within  32 cycles.
 Requested convergence on MAX density matrix=1.00D-06.
 Requested convergence on             energy=1.00D-06.
 No special actions if energy rises.
 SCF Done:  E(RPM6) =  0.229520011203     A.U. after   16 cycles
            NFock= 15  Conv=0.58D-08     -V/T= 1.0021
 QCSCF skips out because SCF is already converged.
 Range of M.O.s used for correlation:     1    54
 NBasis=    54 NAE=    29 NBE=    29 NFC=     0 NFV=     0
 NROrb=     54 NOA=    29 NOB=    29 NVA=    25 NVB=    25
 Symmetrizing basis deriv contribution to polar:
 IMax=3 JMax=2 DiffMx= 0.00D+00
 G2DrvN: will do    22 centers at a time, making    1 passes.
 Calling FoFCou, ICntrl=  3107 FMM=F I1Cent=   0 AccDes= 0.00D+00.
 End of G2Drv F.D. properties file   721 does not exist.
 End of G2Drv F.D. properties file   722 does not exist.
 End of G2Drv F.D. properties file   788 does not exist.
          IDoAtm=111111111111111111111
          Differentiating once with respect to nuclear coordinates.
          Electric field/nuclear overlap derivatives assumed to be zero.
 Keep J ints in memory in canonical form, NReq=869523.
          There are    66 degrees of freedom in the 1st order CPHF.  IDoFFX=5 NUNeed=    66.
 LinEq1:  Iter=  0 NonCon=    63 RMS=1.22D-02 Max=1.21D-01 NDo=    63
 AX will form    66 AO Fock derivatives at one time.
 LinEq1:  Iter=  1 NonCon=    63 RMS=1.70D-03 Max=1.32D-02 NDo=    66
 LinEq1:  Iter=  2 NonCon=    63 RMS=3.10D-04 Max=3.00D-03 NDo=    66
 LinEq1:  Iter=  3 NonCon=    63 RMS=6.00D-05 Max=8.71D-04 NDo=    66
 LinEq1:  Iter=  4 NonCon=    63 RMS=1.51D-05 Max=1.81D-04 NDo=    66
 LinEq1:  Iter=  5 NonCon=    63 RMS=3.63D-06 Max=5.09D-05 NDo=    66
 LinEq1:  Iter=  6 NonCon=    63 RMS=8.31D-07 Max=6.35D-06 NDo=    66
 LinEq1:  Iter=  7 NonCon=    61 RMS=1.31D-07 Max=1.12D-06 NDo=    66
 LinEq1:  Iter=  8 NonCon=    19 RMS=2.44D-08 Max=2.23D-07 NDo=    66
 LinEq1:  Iter=  9 NonCon=     0 RMS=4.15D-09 Max=3.28D-08 NDo=    19
 Linear equations converged to 1.000D-08 1.000D-07 after     9 iterations.
 End of Minotr F.D. properties file   721 does not exist.
 End of Minotr F.D. properties file   722 does not exist.
 End of Minotr F.D. properties file   788 does not exist.

 **********************************************************************

            Population analysis using the SCF Density.

 **********************************************************************

 Alpha  occ. eigenvalues --   -1.27024  -1.13636  -1.07094  -1.06740  -0.96510
 Alpha  occ. eigenvalues --   -0.92517  -0.85588  -0.81121  -0.77722  -0.75035
 Alpha  occ. eigenvalues --   -0.69155  -0.66504  -0.63529  -0.60064  -0.58985
 Alpha  occ. eigenvalues --   -0.56815  -0.55329  -0.53495  -0.52414  -0.50493
 Alpha  occ. eigenvalues --   -0.49215  -0.48421  -0.46259  -0.44301  -0.42802
 Alpha  occ. eigenvalues --   -0.39494  -0.38380  -0.35847  -0.34189
 Alpha virt. eigenvalues --    0.01343   0.04108   0.06796   0.07778   0.10396
 Alpha virt. eigenvalues --    0.10585   0.11020   0.11592   0.12074   0.12461
 Alpha virt. eigenvalues --    0.12830   0.14611   0.14639   0.15251   0.16803
 Alpha virt. eigenvalues --    0.18981   0.19633   0.20025   0.20357   0.20607
 Alpha virt. eigenvalues --    0.21174   0.21209   0.21647   0.22854   0.25258
          Condensed to atoms (all electrons):
               1          2          3          4          5          6
     1  C    4.071038   0.000000   0.000000   0.000000   0.000000   0.000000
     2  C    0.000000   4.348028   0.000000   0.000000   0.000000   0.000000
     3  C    0.000000   0.000000   4.228006   0.000000   0.000000   0.000000
     4  C    0.000000   0.000000   0.000000   4.078427   0.000000   0.000000
     5  C    0.000000   0.000000   0.000000   0.000000   4.150206   0.000000
     6  C    0.000000   0.000000   0.000000   0.000000   0.000000   4.158386
     7  H    0.000000   0.000000   0.000000   0.000000   0.000000   0.000000
     8  H    0.000000   0.000000   0.000000   0.000000   0.000000   0.000000
     9  H    0.000000   0.000000   0.000000   0.000000   0.000000   0.000000
    10  H    0.000000   0.000000   0.000000   0.000000   0.000000   0.000000
    11  C    0.000000   0.000000   0.000000   0.000000   0.000000   0.000000
    12  C    0.000000   0.000000   0.000000   0.000000   0.000000   0.000000
    13  O    0.000000   0.000000   0.000000   0.000000   0.000000   0.000000
    14  O    0.000000   0.000000   0.000000   0.000000   0.000000   0.000000
    15  C    0.000000   0.000000   0.000000   0.000000   0.000000   0.000000
    16  H    0.000000   0.000000   0.000000   0.000000   0.000000   0.000000
    17  H    0.000000   0.000000   0.000000   0.000000   0.000000   0.000000
    18  H    0.000000   0.000000   0.000000   0.000000   0.000000   0.000000
    19  H    0.000000   0.000000   0.000000   0.000000   0.000000   0.000000
    20  H    0.000000   0.000000   0.000000   0.000000   0.000000   0.000000
    21  H    0.000000   0.000000   0.000000   0.000000   0.000000   0.000000
               7          8          9         10         11         12
     1  C    0.000000   0.000000   0.000000   0.000000   0.000000   0.000000
     2  C    0.000000   0.000000   0.000000   0.000000   0.000000   0.000000
     3  C    0.000000   0.000000   0.000000   0.000000   0.000000   0.000000
     4  C    0.000000   0.000000   0.000000   0.000000   0.000000   0.000000
     5  C    0.000000   0.000000   0.000000   0.000000   0.000000   0.000000
     6  C    0.000000   0.000000   0.000000   0.000000   0.000000   0.000000
     7  H    0.853903   0.000000   0.000000   0.000000   0.000000   0.000000
     8  H    0.000000   0.841464   0.000000   0.000000   0.000000   0.000000
     9  H    0.000000   0.000000   0.837181   0.000000   0.000000   0.000000
    10  H    0.000000   0.000000   0.000000   0.839372   0.000000   0.000000
    11  C    0.000000   0.000000   0.000000   0.000000   3.934612   0.000000
    12  C    0.000000   0.000000   0.000000   0.000000   0.000000   3.916189
    13  O    0.000000   0.000000   0.000000   0.000000   0.000000   0.000000
    14  O    0.000000   0.000000   0.000000   0.000000   0.000000   0.000000
    15  C    0.000000   0.000000   0.000000   0.000000   0.000000   0.000000
    16  H    0.000000   0.000000   0.000000   0.000000   0.000000   0.000000
    17  H    0.000000   0.000000   0.000000   0.000000   0.000000   0.000000
    18  H    0.000000   0.000000   0.000000   0.000000   0.000000   0.000000
    19  H    0.000000   0.000000   0.000000   0.000000   0.000000   0.000000
    20  H    0.000000   0.000000   0.000000   0.000000   0.000000   0.000000
    21  H    0.000000   0.000000   0.000000   0.000000   0.000000   0.000000
              13         14         15         16         17         18
     1  C    0.000000   0.000000   0.000000   0.000000   0.000000   0.000000
     2  C    0.000000   0.000000   0.000000   0.000000   0.000000   0.000000
     3  C    0.000000   0.000000   0.000000   0.000000   0.000000   0.000000
     4  C    0.000000   0.000000   0.000000   0.000000   0.000000   0.000000
     5  C    0.000000   0.000000   0.000000   0.000000   0.000000   0.000000
     6  C    0.000000   0.000000   0.000000   0.000000   0.000000   0.000000
     7  H    0.000000   0.000000   0.000000   0.000000   0.000000   0.000000
     8  H    0.000000   0.000000   0.000000   0.000000   0.000000   0.000000
     9  H    0.000000   0.000000   0.000000   0.000000   0.000000   0.000000
    10  H    0.000000   0.000000   0.000000   0.000000   0.000000   0.000000
    11  C    0.000000   0.000000   0.000000   0.000000   0.000000   0.000000
    12  C    0.000000   0.000000   0.000000   0.000000   0.000000   0.000000
    13  O    6.405119   0.000000   0.000000   0.000000   0.000000   0.000000
    14  O    0.000000   6.384133   0.000000   0.000000   0.000000   0.000000
    15  C    0.000000   0.000000   3.983893   0.000000   0.000000   0.000000
    16  H    0.000000   0.000000   0.000000   0.861818   0.000000   0.000000
    17  H    0.000000   0.000000   0.000000   0.000000   0.778453   0.000000
    18  H    0.000000   0.000000   0.000000   0.000000   0.000000   0.847733
    19  H    0.000000   0.000000   0.000000   0.000000   0.000000   0.000000
    20  H    0.000000   0.000000   0.000000   0.000000   0.000000   0.000000
    21  H    0.000000   0.000000   0.000000   0.000000   0.000000   0.000000
              19         20         21
     1  C    0.000000   0.000000   0.000000
     2  C    0.000000   0.000000   0.000000
     3  C    0.000000   0.000000   0.000000
     4  C    0.000000   0.000000   0.000000
     5  C    0.000000   0.000000   0.000000
     6  C    0.000000   0.000000   0.000000
     7  H    0.000000   0.000000   0.000000
     8  H    0.000000   0.000000   0.000000
     9  H    0.000000   0.000000   0.000000
    10  H    0.000000   0.000000   0.000000
    11  C    0.000000   0.000000   0.000000
    12  C    0.000000   0.000000   0.000000
    13  O    0.000000   0.000000   0.000000
    14  O    0.000000   0.000000   0.000000
    15  C    0.000000   0.000000   0.000000
    16  H    0.000000   0.000000   0.000000
    17  H    0.000000   0.000000   0.000000
    18  H    0.000000   0.000000   0.000000
    19  H    0.845763   0.000000   0.000000
    20  H    0.000000   0.785439   0.000000
    21  H    0.000000   0.000000   0.850837
 Mulliken charges:
               1
     1  C   -0.071038
     2  C   -0.348028
     3  C   -0.228006
     4  C   -0.078427
     5  C   -0.150206
     6  C   -0.158386
     7  H    0.146097
     8  H    0.158536
     9  H    0.162819
    10  H    0.160628
    11  C    0.065388
    12  C    0.083811
    13  O   -0.405119
    14  O   -0.384133
    15  C    0.016107
    16  H    0.138182
    17  H    0.221547
    18  H    0.152267
    19  H    0.154237
    20  H    0.214561
    21  H    0.149163
 Sum of Mulliken charges =   0.00000
 Mulliken charges with hydrogens summed into heavy atoms:
               1
     1  C   -0.071038
     2  C    0.027161
     3  C    0.067254
     4  C   -0.078427
     5  C    0.008330
     6  C    0.004433
    11  C    0.219625
    12  C    0.236078
    13  O   -0.405119
    14  O   -0.384133
    15  C    0.375836
 APT charges:
               1
     1  C   -0.071038
     2  C   -0.348028
     3  C   -0.228006
     4  C   -0.078427
     5  C   -0.150206
     6  C   -0.158386
     7  H    0.146097
     8  H    0.158536
     9  H    0.162819
    10  H    0.160628
    11  C    0.065388
    12  C    0.083811
    13  O   -0.405119
    14  O   -0.384133
    15  C    0.016107
    16  H    0.138182
    17  H    0.221547
    18  H    0.152267
    19  H    0.154237
    20  H    0.214561
    21  H    0.149163
 Sum of APT charges =   0.00000
 APT charges with hydrogens summed into heavy atoms:
               1
     1  C   -0.071038
     2  C    0.027161
     3  C    0.067254
     4  C   -0.078427
     5  C    0.008330
     6  C    0.004433
    11  C    0.219625
    12  C    0.236078
    13  O   -0.405119
    14  O   -0.384133
    15  C    0.375836
 Charge=              0.0000 electrons
 Dipole moment (field-independent basis, Debye):
    X=              1.1927    Y=              1.5930    Z=              1.9918  Tot=              2.8156
 N-N= 3.758613865107D+02 E-N=-6.043066435903D+02  KE=-1.083835826724D+02
  Exact polarizability:       0.000       0.000       0.000       0.000       0.000       0.000
 Approx polarizability:      41.081      -2.795      60.284      -5.781      -8.360      61.145
 Calling FoFJK, ICntrl=    100127 FMM=F ISym2X=0 I1Cent= 0 IOpClX= 0 NMat=1 NMatS=1 NMatT=0.
 -------------------------------------------------------------------
 Center     Atomic                   Forces (Hartrees/Bohr)
 Number     Number              X              Y              Z
 -------------------------------------------------------------------
      1        6          -0.020613304    0.040491962   -0.005913301
      2        6           0.008812919    0.096636011    0.086110179
      3        6          -0.006057942    0.009199566   -0.009379388
      4        6           0.006894173    0.013743161    0.054801507
      5        6           0.003266083   -0.023151229    0.005867586
      6        6           0.008165609    0.006047668   -0.029211368
      7        1           0.012179339    0.012978070    0.009580044
      8        1           0.003526887   -0.004066380   -0.005034964
      9        1           0.003154445   -0.005288638   -0.003291948
     10        1           0.001892911    0.002577570    0.016190975
     11        6          -0.037293076   -0.011595135    0.048948634
     12        6          -0.001892464    0.037541800   -0.030188640
     13        8           0.000783686   -0.011849190    0.001237114
     14        8           0.020852775    0.000108967   -0.002809637
     15        6          -0.043036967   -0.081239509   -0.101204369
     16        1          -0.005704524   -0.011633545   -0.013643034
     17        1          -0.076512787   -0.068998510   -0.221768751
     18        1          -0.007382382    0.006443771   -0.011643803
     19        1          -0.020058775   -0.009030453    0.001220898
     20        1           0.147319331    0.002470819    0.225988771
     21        1           0.001704064   -0.001386776   -0.015856506
 -------------------------------------------------------------------
 Cartesian Forces:  Max     0.225988771 RMS     0.054061986
 FormGI is forming the generalized inverse of G from B-inverse, IUseBI=4.

 GradGradGradGradGradGradGradGradGradGradGradGradGradGradGradGradGradGrad
 Berny optimization.
 Internal  Forces:  Max     0.415254933 RMS     0.101062740
 Search for a local minimum.
 Step number   1 out of a maximum of  126
 All quantities printed in internal units (Hartrees-Bohrs-Radians)
 Mixed Optimization -- RFO/linear search
 Second derivative matrix not updated -- analytic derivatives used.
 ITU=  0
     Eigenvalues ---   -1.60911  -0.99587  -0.20590  -0.07565  -0.04688
     Eigenvalues ---   -0.03319  -0.01096  -0.00026   0.00233   0.00457
     Eigenvalues ---    0.00574   0.00934   0.01092   0.01337   0.02332
     Eigenvalues ---    0.02549   0.03471   0.03979   0.04463   0.05168
     Eigenvalues ---    0.06606   0.07650   0.08030   0.08745   0.08932
     Eigenvalues ---    0.09415   0.09649   0.10353   0.12034   0.14107
     Eigenvalues ---    0.15911   0.16918   0.17502   0.19276   0.19891
     Eigenvalues ---    0.23070   0.25367   0.26243   0.26750   0.27028
     Eigenvalues ---    0.27356   0.27508   0.27721   0.28040   0.28622
     Eigenvalues ---    0.28926   0.29073   0.30382   0.32427   0.34174
     Eigenvalues ---    0.35486   0.38331   0.38974   0.42037   0.50390
     Eigenvalues ---    0.61947   7.38664
 RFO step:  Lambda=-1.61170066D+00 EMin=-1.60911331D+00
 I=     1 Eig=   -1.61D+00 Dot1= -6.06D-03
 I=     1 Stepn= -1.00D-01 RXN=   1.00D-01 EDone=F
 I=     2 Eig=   -9.96D-01 Dot1= -6.97D-03
 I=     2 Stepn= -5.00D-02 RXN=   1.12D-01 EDone=F
 I=     3 Eig=   -2.06D-01 Dot1= -6.42D-04
 I=     3 Stepn= -2.50D-02 RXN=   1.15D-01 EDone=F
 Mixed    3 eigenvectors in step.  Raw Step.Grad=  1.37D-02.
 RFO eigenvector is Hessian eigenvector with negative curvature.
 Taking step of  1.15D-01 in eigenvector direction(s).  Step.Grad=  1.63D-02.
 Linear search not attempted -- first point.
 Maximum step size (   0.040) exceeded in Quadratic search.
    -- Step size not scaled.
 Iteration  1 RMS(Cart)=  0.02687283 RMS(Int)=  0.00038186
 Iteration  2 RMS(Cart)=  0.00044793 RMS(Int)=  0.00003606
 Iteration  3 RMS(Cart)=  0.00000017 RMS(Int)=  0.00003606
 Variable       Old X    -DE/DX   Delta X   Delta X   Delta X     New X
                                 (Linear)    (Quad)   (Total)
    R1        2.86345   0.08792   0.00000   0.00819   0.00819   2.87165
    R2        2.88783  -0.02831   0.00000   0.00049   0.00050   2.88833
    R3        2.94580   0.22199   0.00000   0.00745   0.00742   2.95321
    R4        2.91868   0.06522   0.00000  -0.01594  -0.01597   2.90270
    R5        2.02201   0.01422   0.00000   0.00018   0.00018   2.02219
    R6        2.02201  -0.08186   0.00000  -0.02686  -0.02686   1.99514
    R7        2.92542   0.06076   0.00000  -0.00480  -0.00480   2.92062
    R8        2.02201   0.01896   0.00000   0.00017   0.00017   2.02218
    R9        2.02201   0.01318   0.00000   0.00014   0.00014   2.02215
   R10        2.93773  -0.02933   0.00000   0.00107   0.00107   2.93879
   R11        2.85431   0.15796   0.00000  -0.00304  -0.00301   2.85130
   R12        2.59594  -0.07839   0.00000   0.00183   0.00182   2.59776
   R13        2.02201  -0.00434   0.00000  -0.00008  -0.00008   2.02192
   R14        2.02201  -0.00477   0.00000  -0.00010  -0.00010   2.02190
   R15        2.86272   0.11842   0.00000  -0.00265  -0.00263   2.86009
   R16        2.66288   0.12964   0.00000   0.00524   0.00524   2.66812
   R17        2.02201   0.01807   0.00000   0.00008   0.00008   2.02209
   R18        2.69904   0.08571   0.00000   0.00573   0.00572   2.70476
   R19        2.02201   0.01461   0.00000   0.00001   0.00001   2.02201
   R20        2.73944  -0.10659   0.00000   0.01941   0.01940   2.75884
   R21        2.76018  -0.00030   0.00000  -0.02000  -0.01998   2.74020
   R22        2.02201   0.01263   0.00000  -0.00002  -0.00002   2.02199
   R23        2.02201  -0.22622   0.00000  -0.00652  -0.00652   2.01548
    A1        2.17447  -0.20131   0.00000  -0.01051  -0.01049   2.16398
    A2        2.07377   0.41525   0.00000   0.01446   0.01445   2.08822
    A3        2.00300  -0.21240   0.00000  -0.00419  -0.00420   1.99880
    A4        1.59412  -0.05045   0.00000   0.00394   0.00395   1.59807
    A5        2.12361   0.01090   0.00000  -0.00258  -0.00261   2.12101
    A6        1.87744   0.05328   0.00000   0.01194   0.01200   1.88944
    A7        1.99224   0.06391   0.00000  -0.00021  -0.00020   1.99204
    A8        2.00575   0.03376   0.00000  -0.02701  -0.02706   1.97869
    A9        1.86561  -0.09406   0.00000   0.01002   0.00988   1.87549
   A10        1.63166   0.05684   0.00000  -0.00218  -0.00224   1.62942
   A11        1.99043  -0.04104   0.00000   0.00511   0.00513   1.99556
   A12        1.98600   0.00604   0.00000  -0.00342  -0.00340   1.98260
   A13        1.86760  -0.06374   0.00000  -0.00111  -0.00107   1.86653
   A14        2.11139   0.02506   0.00000   0.00254   0.00253   2.11392
   A15        1.87160   0.01177   0.00000  -0.00039  -0.00040   1.87121
   A16        1.98402  -0.19195   0.00000  -0.00433  -0.00433   1.97969
   A17        2.10792   0.38996   0.00000   0.01144   0.01144   2.11936
   A18        2.15375  -0.18938   0.00000  -0.00624  -0.00625   2.14750
   A19        1.69826   0.02582   0.00000  -0.00206  -0.00209   1.69617
   A20        2.29247  -0.01848   0.00000   0.00112   0.00113   2.29360
   A21        2.29241  -0.00723   0.00000   0.00091   0.00092   2.29333
   A22        1.66258   0.02410   0.00000  -0.00234  -0.00235   1.66022
   A23        2.31032  -0.01671   0.00000   0.00124   0.00125   2.31157
   A24        2.31023  -0.00715   0.00000   0.00108   0.00109   2.31132
   A25        1.65621   0.01231   0.00000  -0.01096  -0.01099   1.64522
   A26        2.04172   0.23675   0.00000   0.01477   0.01477   2.05648
   A27        1.88707  -0.13293   0.00000   0.00307   0.00310   1.89017
   A28        1.85055  -0.11006   0.00000   0.00315   0.00322   1.85377
   A29        2.05057   0.04064   0.00000   0.00457   0.00456   2.05513
   A30        1.96351  -0.02197   0.00000  -0.01262  -0.01263   1.95087
   A31        1.59392  -0.03854   0.00000   0.00736   0.00737   1.60129
   A32        1.95023   0.23639   0.00000   0.00963   0.00970   1.95994
   A33        2.09207  -0.07664   0.00000  -0.01119  -0.01120   2.08087
   A34        1.83220  -0.00357   0.00000  -0.01136  -0.01140   1.82081
   A35        2.07735   0.06304   0.00000  -0.00057  -0.00055   2.07680
   A36        1.89145  -0.13626   0.00000   0.00582   0.00582   1.89727
   A37        1.74840   0.12187   0.00000   0.01082   0.01078   1.75918
   A38        1.64928   0.16203   0.00000   0.00721   0.00720   1.65648
   A39        1.84207  -0.02492   0.00000  -0.00981  -0.00978   1.83229
   A40        1.93928   0.04164   0.00000   0.00159   0.00155   1.94082
   A41        1.92055  -0.09075   0.00000   0.03535   0.03530   1.95585
   A42        1.94866   0.05217   0.00000   0.00303   0.00300   1.95166
   A43        1.91115   0.03502   0.00000  -0.01926  -0.01922   1.89193
   A44        1.90157  -0.01494   0.00000  -0.01022  -0.01039   1.89118
    D1       -1.23624  -0.08743   0.00000   0.00366   0.00362  -1.23262
    D2        0.85263  -0.04091   0.00000   0.00527   0.00523   0.85786
    D3        3.00996  -0.11480   0.00000   0.02877   0.02880   3.03875
    D4        1.62184  -0.10793   0.00000   0.00220   0.00213   1.62397
    D5       -2.57248  -0.06140   0.00000   0.00381   0.00375  -2.56873
    D6       -0.41515  -0.13529   0.00000   0.02732   0.02731  -0.38784
    D7        1.52443   0.03283   0.00000  -0.00091  -0.00089   1.52353
    D8       -1.62827   0.05378   0.00000  -0.00245  -0.00244  -1.63071
    D9       -1.34387  -0.03895   0.00000  -0.00229  -0.00227  -1.34614
   D10        1.78662  -0.01800   0.00000  -0.00382  -0.00382   1.78280
   D11       -1.27909   0.00705   0.00000   0.01352   0.01351  -1.26557
   D12        0.65417  -0.04588   0.00000   0.01504   0.01499   0.66916
   D13        2.89175  -0.00327   0.00000   0.01236   0.01238   2.90413
   D14        1.60609  -0.02210   0.00000   0.01082   0.01080   1.61689
   D15       -2.74384  -0.07503   0.00000   0.01234   0.01228  -2.73156
   D16       -0.50626  -0.03242   0.00000   0.00966   0.00967  -0.49659
   D17       -0.23841   0.06495   0.00000  -0.00188  -0.00190  -0.24030
   D18        1.68786   0.01249   0.00000  -0.00303  -0.00303   1.68482
   D19       -2.44069  -0.00018   0.00000  -0.00218  -0.00218  -2.44286
   D20       -2.43538   0.05859   0.00000  -0.00108  -0.00108  -2.43646
   D21       -0.50912   0.00613   0.00000  -0.00223  -0.00222  -0.51134
   D22        1.64552  -0.00653   0.00000  -0.00139  -0.00136   1.64416
   D23        1.68334   0.10579   0.00000   0.00820   0.00814   1.69148
   D24       -2.67358   0.05333   0.00000   0.00705   0.00700  -2.66658
   D25       -0.51894   0.04067   0.00000   0.00790   0.00786  -0.51108
   D26        1.58241  -0.05533   0.00000   0.00786   0.00788   1.59029
   D27       -1.27797  -0.04810   0.00000   0.00592   0.00594  -1.27203
   D28       -0.45010  -0.01857   0.00000   0.00346   0.00347  -0.44663
   D29        2.97270  -0.01134   0.00000   0.00152   0.00153   2.97423
   D30       -2.59722   0.00446   0.00000   0.00310   0.00309  -2.59413
   D31        0.82559   0.01169   0.00000   0.00116   0.00115   0.82673
   D32       -1.34863  -0.03904   0.00000  -0.00198  -0.00199  -1.35062
   D33        1.78285  -0.02741   0.00000  -0.00503  -0.00503   1.77782
   D34        1.50332   0.05993   0.00000   0.00327   0.00324   1.50656
   D35       -1.64839   0.07156   0.00000   0.00022   0.00021  -1.64818
   D36        1.63048  -0.05992   0.00000   0.00863   0.00864   1.63912
   D37       -0.23196  -0.07374   0.00000   0.01647   0.01645  -0.21551
   D38       -2.47186  -0.04290   0.00000   0.00839   0.00840  -2.46346
   D39       -1.20176  -0.06493   0.00000   0.00578   0.00580  -1.19596
   D40       -3.06420  -0.07875   0.00000   0.01361   0.01361  -3.05060
   D41        0.97908  -0.04791   0.00000   0.00554   0.00556   0.98464
   D42       -0.05216   0.04416   0.00000  -0.00619  -0.00619  -0.05835
   D43        3.10054   0.02331   0.00000  -0.00465  -0.00464   3.09589
   D44        3.09955   0.03263   0.00000  -0.00315  -0.00316   3.09639
   D45       -0.03094   0.01178   0.00000  -0.00161  -0.00161  -0.03255
   D46       -0.20887   0.03932   0.00000  -0.00505  -0.00504  -0.21391
   D47        1.76225   0.27413   0.00000   0.00565   0.00565   1.76790
   D48       -2.40146   0.13294   0.00000   0.00371   0.00371  -2.39775
   D49       -2.30141  -0.19045   0.00000  -0.01755  -0.01754  -2.31894
   D50       -0.33029   0.04436   0.00000  -0.00685  -0.00684  -0.33713
   D51        1.78919  -0.09682   0.00000  -0.00880  -0.00878   1.78041
   D52        1.76956  -0.09602   0.00000  -0.00662  -0.00662   1.76294
   D53       -2.54250   0.13879   0.00000   0.00408   0.00407  -2.53843
   D54       -0.42302  -0.00239   0.00000   0.00213   0.00213  -0.42089
   D55       -1.08169  -0.13254   0.00000   0.01737   0.01736  -1.06433
   D56        0.73752  -0.08286   0.00000   0.01237   0.01239   0.74991
   D57        3.00129  -0.13135   0.00000   0.01171   0.01175   3.01304
   D58        1.45234   0.07911   0.00000   0.01561   0.01558   1.46791
   D59       -0.25130   0.04760   0.00000   0.00920   0.00925  -0.24206
   D60       -2.48836   0.05532   0.00000   0.01358   0.01364  -2.47472
   D61        0.75578  -0.12823   0.00000  -0.00621  -0.00626   0.74952
   D62        2.87095  -0.05734   0.00000  -0.00774  -0.00782   2.86313
   D63       -1.30461  -0.10934   0.00000   0.00402   0.00418  -1.30043
   D64       -0.94115   0.10675   0.00000   0.00498   0.00499  -0.93616
   D65       -3.05021   0.04262   0.00000   0.00752   0.00758  -3.04263
   D66        1.12554   0.00402   0.00000   0.03134   0.03132   1.15686
         Item               Value     Threshold  Converged?
 Maximum Force            0.415255     0.000015     NO 
 RMS     Force            0.101063     0.000010     NO 
 Maximum Displacement     0.173433     0.000060     NO 
 RMS     Displacement     0.026922     0.000040     NO 
 Predicted change in Energy=-2.302892D-02
 GradGradGradGradGradGradGradGradGradGradGradGradGradGradGradGradGradGrad

                          Input orientation:                          
 ---------------------------------------------------------------------
 Center     Atomic      Atomic             Coordinates (Angstroms)
 Number     Number       Type             X           Y           Z
 ---------------------------------------------------------------------
      1          6           0       -0.771718    0.611247    0.423180
      2          6           0        0.721342    0.344128    0.330269
      3          6           0        0.919644    1.541620   -0.611073
      4          6           0       -0.593372    1.689324   -0.889674
      5          6           0       -1.310627    2.660635    0.090412
      6          6           0       -1.382316    1.802057    1.161597
      7          1           0        1.235800    2.439375   -0.122019
      8          1           0       -1.632162    3.674409   -0.026561
      9          1           0       -1.749505    1.921825    2.159401
     10          1           0        1.347799    0.360976    1.197661
     11          6           0       -1.749444   -0.115765   -0.555476
     12          6           0       -1.333382    0.702566   -1.758757
     13          8           0       -0.445843   -0.156686   -2.481652
     14          8           0       -1.476108   -1.462214   -0.880809
     15          6           0       -0.184661   -1.185544   -1.479365
     16          1           0        0.242915   -2.059615   -1.924401
     17          1           0        0.474170   -0.841557   -0.714421
     18          1           0       -2.087225    1.059424   -2.429040
     19          1           0       -2.746783    0.009384   -0.188540
     20          1           0        0.861574   -0.588836   -0.143643
     21          1           0        1.612213    1.352556   -1.404583
 ---------------------------------------------------------------------
                    Distance matrix (angstroms):
                    1          2          3          4          5
     1  C    0.000000
     2  C    1.519609   0.000000
     3  C    2.189972   1.536045   0.000000
     4  C    1.708112   2.241938   1.545526   0.000000
     5  C    2.145029   3.090733   2.591984   1.555142   0.000000
     6  C    1.528436   2.691104   2.917054   2.200649   1.374676
     7  H    2.769373   2.204380   1.070090   2.120788   2.564834
     8  H    3.213345   4.093541   3.376707   2.400960   1.069955
     9  H    2.384983   3.455422   3.865803   3.269184   2.240350
    10  H    2.270420   1.070095   2.201989   3.144777   3.685330
    11  C    1.562774   2.664738   3.142299   2.169456   2.884116
    12  C    2.254918   2.952016   2.664079   1.508845   2.693321
    13  O    3.022246   3.085455   2.871909   2.442112   3.911606
    14  O    2.548686   3.091662   3.851676   3.272842   4.238931
    15  C    2.681935   2.536831   3.067710   2.963047   4.304078
    16  H    3.697854   3.330227   3.892517   3.978013   5.362250
    17  H    2.226436   1.599475   2.426657   2.752403   4.012307
    18  H    3.172788   4.001685   3.546657   2.235625   3.084578
    19  H    2.153445   3.522656   3.996119   2.819746   3.028117
    20  H    2.104550   1.055784   2.181904   2.804184   3.915648
    21  H    3.094089   2.195516   1.070073   2.289792   3.533988
                    6          7          8          9         10
     6  C    0.000000
     7  H    2.984691   0.000000
     8  H    2.231556   3.124040   0.000000
     9  H    1.069946   3.792728   2.804237   0.000000
    10  H    3.087319   2.464517   4.621442   3.599234   0.000000
    11  C    2.600224   3.953266   3.828697   3.394456   3.590778
    12  C    3.120857   3.506582   3.452771   4.124526   4.005724
    13  O    4.241099   3.890414   4.702352   5.249678   4.125830
    14  O    3.851713   4.811716   5.209509   4.557340   3.952027
    15  C    4.163511   4.123122   5.274944   5.034392   3.450598
    16  H    5.203583   4.947254   6.324298   6.041444   4.102110
    17  H    3.735597   3.419874   5.030282   4.565071   2.421854
    18  H    3.733776   4.274238   3.580103   4.680981   5.043827
    19  H    2.626465   4.665860   3.834191   3.188232   4.337139
    20  H    3.529174   3.051324   4.940413   4.292455   1.713959
    21  H    3.969199   1.722740   4.220890   4.932261   2.797288
                   11         12         13         14         15
    11  C    0.000000
    12  C    1.513492   0.000000
    13  O    2.326200   1.431298   0.000000
    14  O    1.411907   2.340392   2.308365   0.000000
    15  C    2.108683   2.227684   1.459913   1.450053   0.000000
    16  H    3.101936   3.184618   2.099061   2.097860   1.069990
    17  H    2.344461   2.596574   2.106793   2.053409   1.066547
    18  H    2.237277   1.070003   2.043484   3.021446   3.092170
    19  H    1.070041   2.223462   3.252732   2.063844   3.107821
    20  H    2.685297   3.015650   2.713371   2.602108   1.798561
    21  H    3.765327   3.037179   2.770105   4.211295   3.110675
                   16         17         18         19         20
    16  H    0.000000
    17  H    1.732396   0.000000
    18  H    3.925891   3.621380   0.000000
    19  H    4.028929   3.372713   2.560750   0.000000
    20  H    2.391031   0.734669   4.078630   3.657885   0.000000
    21  H    3.713234   2.566242   3.849842   4.720563   2.433605
                   21
    21  H    0.000000
 Symmetry turned off by external request.
 Stoichiometry    C9H10O2
 Framework group  C1[X(C9H10O2)]
 Deg. of freedom    57
 Full point group                 C1      NOp   1
 Rotational constants (GHZ):           2.2010627           1.2450479           1.1744864
 Standard basis: VSTO-6G (5D, 7F)
    54 basis functions,   324 primitive gaussians,    54 cartesian basis functions
    29 alpha electrons       29 beta electrons
       nuclear repulsion energy       375.2997193091 Hartrees.
 Integral buffers will be    131072 words long.
 Regular integral format.
 Two-electron integral symmetry is turned off.
 Do NDO integrals.
 One-electron integrals computed using PRISM.
 NBasis=    54 RedAO= F EigKep=  0.00D+00  NBF=    54
 NBsUse=    54 1.00D-04 EigRej=  0.00D+00 NBFU=    54
 Initial guess from the checkpoint file:  "C:\Users\al6323\OneDrive - Imperial College London\Desktop\TSR20251115\Exercise 2\Product_PM6_exo.chk"
 B after Tr=    -0.003212   -0.003037   -0.001370
         Rot=    1.000000    0.000062    0.000373    0.000743 Ang=   0.10 deg.
 Keep J ints in memory in canonical form, NReq=867381.
 Overlap will be assumed to be unity.
 Requested convergence on RMS density matrix=1.00D-08 within  32 cycles.
 Requested convergence on MAX density matrix=1.00D-06.
 Requested convergence on             energy=1.00D-06.
 No special actions if energy rises.
 SCF Done:  E(RPM6) =  0.207144837106     A.U. after   13 cycles
            NFock= 12  Conv=0.89D-08     -V/T= 1.0019
 QCSCF skips out because SCF is already converged.
 Calling FoFJK, ICntrl=      2127 FMM=F ISym2X=0 I1Cent= 0 IOpClX= 0 NMat=1 NMatS=1 NMatT=0.
 -------------------------------------------------------------------
 Center     Atomic                   Forces (Hartrees/Bohr)
 Number     Number              X              Y              Z
 -------------------------------------------------------------------
      1        6          -0.018948379    0.037512199   -0.005803541
      2        6           0.004560759    0.089044821    0.078432019
      3        6          -0.005474436    0.010803545   -0.012340372
      4        6           0.005391261    0.013446712    0.053735534
      5        6           0.003393530   -0.023370343    0.006981490
      6        6           0.007483789    0.006715118   -0.030130810
      7        1           0.012232119    0.013396587    0.009622384
      8        1           0.003644117   -0.004085681   -0.004975264
      9        1           0.003143407   -0.005240450   -0.003415195
     10        1           0.001564277    0.001994348    0.016565784
     11        6          -0.035481896   -0.010736733    0.050103555
     12        6           0.000054630    0.033258092   -0.031582336
     13        8           0.003783744   -0.012941083    0.005411936
     14        8           0.015539861   -0.000008792    0.000447065
     15        6          -0.039250357   -0.071165958   -0.095273139
     16        1          -0.005617907   -0.010814400   -0.014684210
     17        1          -0.083592655   -0.101322035   -0.171974174
     18        1          -0.007121493    0.005765412   -0.012387572
     19        1          -0.019790228   -0.008265541    0.001494943
     20        1           0.152624988    0.037151996    0.175988452
     21        1           0.001860869   -0.001137813   -0.016216547
 -------------------------------------------------------------------
 Cartesian Forces:  Max     0.175988452 RMS     0.048411173

 GradGradGradGradGradGradGradGradGradGradGradGradGradGradGradGradGradGrad
 Berny optimization.
 Using GEDIIS/GDIIS optimizer.
 FormGI is forming the generalized inverse of G from B-inverse, IUseBI=4.
 Internal  Forces:  Max     0.398984268 RMS     0.094357847
 Search for a local minimum.
 Step number   2 out of a maximum of  126
 All quantities printed in internal units (Hartrees-Bohrs-Radians)
 Mixed Optimization -- RFO/linear search
 Update second derivatives using D2CorX and points    1    2
 ITU=  0  0
 Use linear search instead of GDIIS.
     Eigenvalues ---   -1.53327  -0.97771  -0.20559  -0.07565  -0.04688
     Eigenvalues ---   -0.03318  -0.01096  -0.00026   0.00233   0.00457
     Eigenvalues ---    0.00574   0.00934   0.01092   0.01337   0.02332
     Eigenvalues ---    0.02549   0.03471   0.03979   0.04462   0.05168
     Eigenvalues ---    0.06605   0.07649   0.08030   0.08744   0.08932
     Eigenvalues ---    0.09414   0.09647   0.10351   0.12032   0.14106
     Eigenvalues ---    0.15910   0.16917   0.17501   0.19274   0.19891
     Eigenvalues ---    0.23068   0.25365   0.26240   0.26748   0.27027
     Eigenvalues ---    0.27356   0.27507   0.27720   0.28038   0.28621
     Eigenvalues ---    0.28925   0.29073   0.30374   0.32424   0.34173
     Eigenvalues ---    0.35460   0.38324   0.38968   0.42034   0.50384
     Eigenvalues ---    0.61941   6.82964
 RFO step:  Lambda=-1.53803749D+00 EMin=-1.53327391D+00
 I=     1 Eig=   -1.53D+00 Dot1= -8.01D-03
 I=     1 Stepn= -1.00D-01 RXN=   1.00D-01 EDone=F
 I=     2 Eig=   -9.78D-01 Dot1= -7.58D-03
 I=     2 Stepn= -5.00D-02 RXN=   1.12D-01 EDone=F
 I=     3 Eig=   -2.06D-01 Dot1= -6.75D-04
 I=     3 Stepn= -2.50D-02 RXN=   1.15D-01 EDone=F
 Mixed    3 eigenvectors in step.  Raw Step.Grad=  1.63D-02.
 RFO eigenvector is Hessian eigenvector with negative curvature.
 Taking step of  1.15D-01 in eigenvector direction(s).  Step.Grad=  1.42D-02.
 Skip linear search -- no minimum in search direction.
 Maximum step size (   0.040) exceeded in Quadratic search.
    -- Step size not scaled.
 Iteration  1 RMS(Cart)=  0.02517240 RMS(Int)=  0.00037002
 Iteration  2 RMS(Cart)=  0.00042954 RMS(Int)=  0.00003702
 Iteration  3 RMS(Cart)=  0.00000016 RMS(Int)=  0.00003702
 Variable       Old X    -DE/DX   Delta X   Delta X   Delta X     New X
                                 (Linear)    (Quad)   (Total)
    R1        2.87165   0.09733   0.00000   0.00894   0.00893   2.88058
    R2        2.88833  -0.02684   0.00000   0.00057   0.00058   2.88891
    R3        2.95321   0.21692   0.00000   0.00635   0.00632   2.95953
    R4        2.90270   0.03936   0.00000  -0.01596  -0.01600   2.88671
    R5        2.02219   0.01437   0.00000   0.00019   0.00019   2.02237
    R6        1.99514  -0.09155   0.00000  -0.02081  -0.02081   1.97433
    R7        2.92062   0.04900   0.00000  -0.00484  -0.00483   2.91579
    R8        2.02218   0.01925   0.00000   0.00019   0.00019   2.02236
    R9        2.02215   0.01343   0.00000   0.00021   0.00021   2.02235
   R10        2.93879  -0.02789   0.00000   0.00106   0.00106   2.93985
   R11        2.85130   0.14222   0.00000  -0.00374  -0.00371   2.84760
   R12        2.59776  -0.07111   0.00000   0.00232   0.00232   2.60008
   R13        2.02192  -0.00442   0.00000  -0.00010  -0.00010   2.02182
   R14        2.02190  -0.00485   0.00000  -0.00012  -0.00012   2.02179
   R15        2.86009   0.10721   0.00000  -0.00332  -0.00330   2.85679
   R16        2.66812   0.12781   0.00000   0.00375   0.00374   2.67186
   R17        2.02209   0.01799   0.00000   0.00009   0.00009   2.02217
   R18        2.70476   0.08834   0.00000   0.00493   0.00492   2.70968
   R19        2.02201   0.01470   0.00000   0.00001   0.00001   2.02202
   R20        2.75884  -0.07028   0.00000   0.02016   0.02015   2.77899
   R21        2.74020  -0.02696   0.00000  -0.02045  -0.02042   2.71978
   R22        2.02199   0.01270   0.00000  -0.00001  -0.00001   2.02198
   R23        2.01548  -0.20766   0.00000  -0.00071  -0.00071   2.01478
    A1        2.16398  -0.19735   0.00000  -0.00886  -0.00885   2.15513
    A2        2.08822   0.39898   0.00000   0.01136   0.01135   2.09957
    A3        1.99880  -0.20049   0.00000  -0.00278  -0.00279   1.99601
    A4        1.59807  -0.04268   0.00000   0.00395   0.00396   1.60203
    A5        2.12101   0.00754   0.00000  -0.00277  -0.00280   2.11821
    A6        1.88944   0.06235   0.00000   0.01254   0.01259   1.90203
    A7        1.99204   0.05827   0.00000  -0.00069  -0.00068   1.99136
    A8        1.97869   0.00096   0.00000  -0.02801  -0.02805   1.95064
    A9        1.87549  -0.07495   0.00000   0.01057   0.01042   1.88591
   A10        1.62942   0.04989   0.00000  -0.00254  -0.00260   1.62683
   A11        1.99556  -0.03145   0.00000   0.00572   0.00574   2.00130
   A12        1.98260   0.00119   0.00000  -0.00373  -0.00372   1.97888
   A13        1.86653  -0.05948   0.00000  -0.00060  -0.00057   1.86596
   A14        2.11392   0.02568   0.00000   0.00227   0.00227   2.11619
   A15        1.87121   0.01041   0.00000  -0.00047  -0.00047   1.87073
   A16        1.97969  -0.18004   0.00000  -0.00296  -0.00296   1.97674
   A17        2.11936   0.37116   0.00000   0.00835   0.00835   2.12771
   A18        2.14750  -0.18186   0.00000  -0.00460  -0.00462   2.14288
   A19        1.69617   0.02045   0.00000  -0.00231  -0.00234   1.69383
   A20        2.29360  -0.01578   0.00000   0.00124   0.00125   2.29484
   A21        2.29333  -0.00458   0.00000   0.00103   0.00104   2.29438
   A22        1.66022   0.01950   0.00000  -0.00242  -0.00244   1.65779
   A23        2.31157  -0.01447   0.00000   0.00128   0.00129   2.31285
   A24        2.31132  -0.00482   0.00000   0.00112   0.00113   2.31244
   A25        1.64522  -0.00633   0.00000  -0.01133  -0.01134   1.63388
   A26        2.05648   0.23688   0.00000   0.01200   0.01201   2.06849
   A27        1.89017  -0.11447   0.00000   0.00489   0.00491   1.89508
   A28        1.85377  -0.09627   0.00000   0.00448   0.00453   1.85830
   A29        2.05513   0.04302   0.00000   0.00433   0.00432   2.05945
   A30        1.95087  -0.03776   0.00000  -0.01256  -0.01257   1.93830
   A31        1.60129  -0.02391   0.00000   0.00777   0.00777   1.60906
   A32        1.95994   0.22599   0.00000   0.00686   0.00692   1.96685
   A33        2.08087  -0.08534   0.00000  -0.01046  -0.01047   2.07040
   A34        1.82081  -0.01849   0.00000  -0.01125  -0.01127   1.80954
   A35        2.07680   0.05628   0.00000  -0.00124  -0.00122   2.07558
   A36        1.89727  -0.11463   0.00000   0.00758   0.00757   1.90483
   A37        1.75918   0.12451   0.00000   0.00860   0.00855   1.76773
   A38        1.65648   0.15624   0.00000   0.00469   0.00467   1.66115
   A39        1.83229  -0.03357   0.00000  -0.00834  -0.00830   1.82398
   A40        1.94082   0.03925   0.00000   0.00054   0.00049   1.94131
   A41        1.95585  -0.02655   0.00000   0.03633   0.03627   1.99212
   A42        1.95166   0.05383   0.00000   0.00252   0.00248   1.95414
   A43        1.89193  -0.01096   0.00000  -0.02189  -0.02184   1.87009
   A44        1.89118  -0.02194   0.00000  -0.00900  -0.00919   1.88199
    D1       -1.23262  -0.07551   0.00000   0.00477   0.00474  -1.22789
    D2        0.85786  -0.03156   0.00000   0.00572   0.00568   0.86354
    D3        3.03875  -0.07201   0.00000   0.03090   0.03093   3.06968
    D4        1.62397  -0.09761   0.00000   0.00325   0.00318   1.62715
    D5       -2.56873  -0.05367   0.00000   0.00419   0.00413  -2.56460
    D6       -0.38784  -0.09411   0.00000   0.02937   0.02938  -0.35846
    D7        1.52353   0.02847   0.00000  -0.00113  -0.00111   1.52242
    D8       -1.63071   0.04559   0.00000  -0.00295  -0.00294  -1.63365
    D9       -1.34614  -0.03931   0.00000  -0.00183  -0.00182  -1.34796
   D10        1.78280  -0.02220   0.00000  -0.00365  -0.00364   1.77915
   D11       -1.26557   0.02469   0.00000   0.01400   0.01399  -1.25159
   D12        0.66916  -0.02471   0.00000   0.01586   0.01582   0.68498
   D13        2.90413   0.01325   0.00000   0.01276   0.01278   2.91691
   D14        1.61689  -0.00633   0.00000   0.01137   0.01134   1.62823
   D15       -2.73156  -0.05573   0.00000   0.01323   0.01317  -2.71839
   D16       -0.49659  -0.01777   0.00000   0.01013   0.01013  -0.48646
   D17       -0.24030   0.05720   0.00000  -0.00275  -0.00276  -0.24306
   D18        1.68482   0.00841   0.00000  -0.00339  -0.00339   1.68143
   D19       -2.44286  -0.00219   0.00000  -0.00243  -0.00242  -2.44528
   D20       -2.43646   0.05213   0.00000  -0.00157  -0.00156  -2.43802
   D21       -0.51134   0.00335   0.00000  -0.00222  -0.00220  -0.51353
   D22        1.64416  -0.00726   0.00000  -0.00125  -0.00123   1.64294
   D23        1.69148   0.10621   0.00000   0.00761   0.00755   1.69903
   D24       -2.66658   0.05742   0.00000   0.00696   0.00691  -2.65967
   D25       -0.51108   0.04681   0.00000   0.00793   0.00788  -0.50320
   D26        1.59029  -0.04021   0.00000   0.00880   0.00882   1.59911
   D27       -1.27203  -0.03704   0.00000   0.00682   0.00684  -1.26519
   D28       -0.44663  -0.01208   0.00000   0.00377   0.00377  -0.44286
   D29        2.97423  -0.00892   0.00000   0.00179   0.00180   2.97603
   D30       -2.59413   0.00863   0.00000   0.00325   0.00324  -2.59089
   D31        0.82673   0.01179   0.00000   0.00128   0.00127   0.82800
   D32       -1.35062  -0.03879   0.00000  -0.00169  -0.00170  -1.35232
   D33        1.77782  -0.03230   0.00000  -0.00484  -0.00484   1.77298
   D34        1.50656   0.05888   0.00000   0.00269   0.00266   1.50922
   D35       -1.64818   0.06537   0.00000  -0.00046  -0.00047  -1.64866
   D36        1.63912  -0.04210   0.00000   0.00970   0.00972   1.64885
   D37       -0.21551  -0.04571   0.00000   0.01756   0.01755  -0.19796
   D38       -2.46346  -0.02662   0.00000   0.00918   0.00918  -2.45428
   D39       -1.19596  -0.05136   0.00000   0.00698   0.00700  -1.18896
   D40       -3.05060  -0.05497   0.00000   0.01484   0.01484  -3.03576
   D41        0.98464  -0.03587   0.00000   0.00645   0.00647   0.99111
   D42       -0.05835   0.03157   0.00000  -0.00668  -0.00667  -0.06502
   D43        3.09589   0.01457   0.00000  -0.00486  -0.00485   3.09105
   D44        3.09639   0.02522   0.00000  -0.00353  -0.00354   3.09285
   D45       -0.03255   0.00822   0.00000  -0.00171  -0.00171  -0.03427
   D46       -0.21391   0.02887   0.00000  -0.00592  -0.00591  -0.21982
   D47        1.76790   0.25474   0.00000   0.00187   0.00186   1.76976
   D48       -2.39775   0.12570   0.00000   0.00194   0.00195  -2.39579
   D49       -2.31894  -0.19800   0.00000  -0.01563  -0.01561  -2.33455
   D50       -0.33713   0.02787   0.00000  -0.00784  -0.00784  -0.34497
   D51        1.78041  -0.10117   0.00000  -0.00776  -0.00775   1.77266
   D52        1.76294  -0.09578   0.00000  -0.00572  -0.00572   1.75722
   D53       -2.53843   0.13009   0.00000   0.00207   0.00206  -2.53638
   D54       -0.42089   0.00104   0.00000   0.00214   0.00215  -0.41874
   D55       -1.06433  -0.09309   0.00000   0.01918   0.01917  -1.04516
   D56        0.74991  -0.05804   0.00000   0.01340   0.01343   0.76334
   D57        3.01304  -0.10252   0.00000   0.01347   0.01351   3.02655
   D58        1.46791   0.09642   0.00000   0.01512   0.01509   1.48300
   D59       -0.24206   0.06040   0.00000   0.00927   0.00931  -0.23275
   D60       -2.47472   0.07136   0.00000   0.01339   0.01345  -2.46128
   D61        0.74952  -0.12764   0.00000  -0.00474  -0.00479   0.74474
   D62        2.86313  -0.06201   0.00000  -0.00654  -0.00662   2.85651
   D63       -1.30043  -0.08095   0.00000   0.00777   0.00795  -1.29248
   D64       -0.93616   0.10231   0.00000   0.00332   0.00335  -0.93281
   D65       -3.04263   0.04627   0.00000   0.00650   0.00658  -3.03605
   D66        1.15686   0.04780   0.00000   0.03027   0.03024   1.18710
         Item               Value     Threshold  Converged?
 Maximum Force            0.398984     0.000015     NO 
 RMS     Force            0.094358     0.000010     NO 
 Maximum Displacement     0.156263     0.000060     NO 
 RMS     Displacement     0.025231     0.000040     NO 
 Predicted change in Energy=-2.522000D-02
 GradGradGradGradGradGradGradGradGradGradGradGradGradGradGradGradGradGrad

                          Input orientation:                          
 ---------------------------------------------------------------------
 Center     Atomic      Atomic             Coordinates (Angstroms)
 Number     Number       Type             X           Y           Z
 ---------------------------------------------------------------------
      1          6           0       -0.766552    0.611193    0.414306
      2          6           0        0.734357    0.362157    0.320203
      3          6           0        0.924106    1.563141   -0.604533
      4          6           0       -0.587051    1.693955   -0.887456
      5          6           0       -1.314295    2.658674    0.092667
      6          6           0       -1.379686    1.795301    1.161976
      7          1           0        1.227522    2.463094   -0.111251
      8          1           0       -1.642016    3.670706   -0.021700
      9          1           0       -1.745286    1.908631    2.161048
     10          1           0        1.357241    0.377951    1.190307
     11          6           0       -1.750746   -0.114789   -0.563977
     12          6           0       -1.322709    0.708025   -1.757771
     13          8           0       -0.438822   -0.165938   -2.472622
     14          8           0       -1.497861   -1.465525   -0.896595
     15          6           0       -0.202186   -1.217214   -1.471914
     16          1           0        0.210482   -2.095454   -1.922762
     17          1           0        0.444164   -0.924248   -0.676219
     18          1           0       -2.071270    1.075120   -2.428456
     19          1           0       -2.748797    0.010935   -0.199044
     20          1           0        0.898302   -0.540857   -0.179027
     21          1           0        1.623417    1.384453   -1.394675
 ---------------------------------------------------------------------
                    Distance matrix (angstroms):
                    1          2          3          4          5
     1  C    0.000000
     2  C    1.524338   0.000000
     3  C    2.191475   1.527581   0.000000
     4  C    1.702698   2.231198   1.542969   0.000000
     5  C    2.143747   3.085894   2.587802   1.555702   0.000000
     6  C    1.528743   2.689175   2.912371   2.199708   1.375904
     7  H    2.771657   2.200750   1.070189   2.118194   2.557473
     8  H    3.212033   4.087853   3.371424   2.402089   1.069902
     9  H    2.385870   3.453828   3.859204   3.268176   2.241990
    10  H    2.273121   1.070194   2.194022   3.135162   3.680166
    11  C    1.566118   2.680483   3.157835   2.174943   2.883361
    12  C    2.244238   2.944337   2.666338   1.506884   2.688722
    13  O    3.007606   3.074915   2.887394   2.448249   3.914792
    14  O    2.562427   3.131105   3.888964   3.288157   4.245157
    15  C    2.686895   2.565776   3.122700   2.994097   4.325183
    16  H    3.707077   3.368262   3.953771   4.008433   5.384109
    17  H    2.238897   1.652848   2.534282   2.821881   4.064566
    18  H    3.162090   3.991865   3.540782   2.227227   3.071924
    19  H    2.160047   3.539115   4.007989   2.824821   3.025461
    20  H    2.109741   1.044769   2.146749   2.775344   3.899539
    21  H    3.095529   2.185480   1.070183   2.288937   3.530720
                    6          7          8          9         10
     6  C    0.000000
     7  H    2.977346   0.000000
     8  H    2.233171   3.114578   0.000000
     9  H    1.069884   3.782639   2.807127   0.000000
    10  H    3.082281   2.461443   4.615923   3.593188   0.000000
    11  C    2.600970   3.964911   3.825685   3.394116   3.602761
    12  C    3.116142   3.506419   3.448678   4.120336   3.997780
    13  O    4.235798   3.906992   4.708984   5.242288   4.115666
    14  O    3.858065   4.845465   5.212207   4.560190   3.988129
    15  C    4.171226   4.176139   5.297923   5.034926   3.473296
    16  H    5.213657   5.009622   6.347786   6.044438   4.138114
    17  H    3.755175   3.522347   5.088629   4.568258   2.452213
    18  H    3.726681   4.263560   3.565642   4.675955   5.033506
    19  H    2.628840   4.672463   3.827577   3.190349   4.350235
    20  H    3.527769   3.022698   4.920898   4.297035   1.711698
    21  H    3.965336   1.722608   4.216049   4.926063   2.786760
                   11         12         13         14         15
    11  C    0.000000
    12  C    1.511748   0.000000
    13  O    2.316611   1.433903   0.000000
    14  O    1.413886   2.344488   2.300946   0.000000
    15  C    2.106591   2.245847   1.470576   1.439245   0.000000
    16  H    3.100926   3.199592   2.108785   2.090039   1.069983
    17  H    2.342104   2.637406   2.140505   2.028056   1.066174
    18  H    2.234927   1.070009   2.051112   3.021634   3.108576
    19  H    1.070088   2.224700   3.245986   2.057025   3.100609
    20  H    2.710567   2.997504   2.681239   2.666742   1.827590
    21  H    3.784543   3.044512   2.796160   4.255918   3.179224
                   16         17         18         19         20
    16  H    0.000000
    17  H    1.726326   0.000000
    18  H    3.938865   3.659947   0.000000
    19  H    4.020623   3.361140   2.561603   0.000000
    20  H    2.435258   0.774874   4.060747   3.688659   0.000000
    21  H    3.792759   2.690152   3.849039   4.736280   2.389647
                   21
    21  H    0.000000
 Symmetry turned off by external request.
 Stoichiometry    C9H10O2
 Framework group  C1[X(C9H10O2)]
 Deg. of freedom    57
 Full point group                 C1      NOp   1
 Rotational constants (GHZ):           2.2025828           1.2411781           1.1652013
 Standard basis: VSTO-6G (5D, 7F)
    54 basis functions,   324 primitive gaussians,    54 cartesian basis functions
    29 alpha electrons       29 beta electrons
       nuclear repulsion energy       374.8988121643 Hartrees.
 Integral buffers will be    131072 words long.
 Regular integral format.
 Two-electron integral symmetry is turned off.
 Do NDO integrals.
 One-electron integrals computed using PRISM.
 NBasis=    54 RedAO= F EigKep=  0.00D+00  NBF=    54
 NBsUse=    54 1.00D-04 EigRej=  0.00D+00 NBFU=    54
 Initial guess from the checkpoint file:  "C:\Users\al6323\OneDrive - Imperial College London\Desktop\TSR20251115\Exercise 2\Product_PM6_exo.chk"
 B after Tr=    -0.002525   -0.002354   -0.000771
         Rot=    1.000000    0.000050    0.000467    0.000652 Ang=   0.09 deg.
 Keep J ints in memory in canonical form, NReq=867381.
 Overlap will be assumed to be unity.
 Requested convergence on RMS density matrix=1.00D-08 within  32 cycles.
 Requested convergence on MAX density matrix=1.00D-06.
 Requested convergence on             energy=1.00D-06.
 No special actions if energy rises.
 SCF Done:  E(RPM6) =  0.184704544732     A.U. after   13 cycles
            NFock= 12  Conv=0.77D-08     -V/T= 1.0017
 QCSCF skips out because SCF is already converged.
 Calling FoFJK, ICntrl=      2127 FMM=F ISym2X=0 I1Cent= 0 IOpClX= 0 NMat=1 NMatS=1 NMatT=0.
 -------------------------------------------------------------------
 Center     Atomic                   Forces (Hartrees/Bohr)
 Number     Number              X              Y              Z
 -------------------------------------------------------------------
      1        6          -0.017078865    0.035016460   -0.004998970
      2        6           0.001248143    0.081113806    0.073824701
      3        6          -0.004726995    0.013953834   -0.015162112
      4        6           0.003785766    0.013695131    0.052813870
      5        6           0.003630090   -0.023831882    0.008244484
      6        6           0.006839072    0.007454754   -0.031281862
      7        1           0.012272356    0.013766139    0.009697954
[...]
 000968,0.00000143,-0.00002301,0.00019757,0.07180073,0.06550316,0.21303
 101,-0.09867865,-0.03930158,-0.05190637,-0.01872546,-0.01405049,-0.009
 05247,-0.00359611,-0.00134525,-0.00000577,-0.01412576,-0.04282751,0.00
 500850,-0.00019517,-0.00159684,-0.00052219,0.00600252,0.00321700,0.002
 10325,-0.00006987,0.00012108,0.00001735,0.00000490,-0.00003663,-0.0002
 7210,-0.00064710,0.00075709,-0.00014955,-0.00182052,-0.00013306,0.0005
 5607,0.47676847,-0.04173777,-0.08296020,-0.06292308,-0.00399912,0.0028
 4072,0.00109746,-0.00233103,-0.00186398,-0.00054295,-0.04332359,-0.059
 93074,0.00852570,0.00030587,-0.00601875,-0.00124702,-0.00275275,-0.020
 22444,-0.00972341,-0.00044775,-0.00017974,0.00013698,0.00083519,-0.000
 26976,0.00046110,-0.00033797,0.00013527,-0.00065603,0.00120553,-0.0003
 8145,-0.00034843,0.04406837,0.46278842,-0.04091350,-0.03888002,-0.0816
 1994,-0.01069559,-0.00619580,-0.00131859,-0.00162196,-0.00137773,0.000
 08000,0.00330722,0.01525681,0.00227569,0.00038533,-0.00165955,-0.00165
 493,-0.00183662,-0.01922588,-0.00544639,-0.00039289,0.00012460,-0.0001
 1511,0.00003417,-0.00027109,-0.00010543,0.00013811,0.00012539,-0.00017
 076,-0.00052677,-0.00022128,-0.00010535,-0.07918175,0.03685122,0.35952
 669,0.00253326,-0.00306856,-0.02408393,-0.00285520,0.00042667,-0.00211
 260,-0.01783305,-0.00907609,-0.01760430,-0.09924893,-0.04382488,-0.040
 50831,0.00564856,0.00172926,0.00276135,-0.00017173,-0.00082622,-0.0005
 4823,-0.00180065,0.00092465,-0.00080567,-0.00063373,0.00026802,0.00054
 645,-0.00023969,-0.00033717,-0.00000148,-0.00012551,0.00003122,0.00016
 005,-0.04950935,0.00144150,0.00860887,0.40604910,-0.00660223,0.0063377
 4,0.00196699,-0.00108907,-0.00024731,-0.00183942,-0.00622366,0.0017698
 0,-0.00413687,-0.04068999,-0.08816753,-0.03751689,-0.00079041,-0.01442
 543,-0.02196168,0.00058680,-0.00268738,-0.00224777,0.00020078,-0.00043
 138,-0.00013252,0.00006193,-0.00033467,0.00012339,0.00035564,-0.000065
 31,-0.00025041,-0.00048320,0.00004582,-0.00008033,-0.00557243,-0.06009
 638,0.04245435,-0.08367096,0.41894301,-0.02541442,-0.00388010,-0.08065
 273,-0.00237827,-0.00045640,-0.00227780,-0.00625271,0.00032746,-0.0011
 3983,-0.05097536,-0.06171323,-0.07584303,0.00031468,-0.01059875,-0.010
 89040,0.00103870,-0.00256230,-0.00500934,0.00073919,-0.00039415,-0.000
 07583,-0.00072001,-0.00037285,0.00028490,0.00086900,0.00013941,-0.0000
 6496,-0.00024470,0.00017052,-0.00028492,0.02002531,0.04964271,-0.08412
 488,0.06956274,0.02289764,0.47409372,-0.00009816,-0.00048278,-0.000311
 23,0.00027625,-0.00040622,-0.00040823,-0.00007288,-0.00087708,-0.00149
 656,0.00865695,-0.00002978,0.00242454,0.00098577,-0.00082661,-0.000858
 62,0.00011521,-0.00021200,0.00031503,0.00016740,-0.00013768,0.00012406
 ,-0.00012279,-0.00028153,-0.00005474,-0.00006214,-0.00007217,-0.000282
 02,0.00000029,0.00005587,-0.00009575,-0.01073676,0.00232618,0.02901941
 ,-0.08359679,0.05425483,0.06264806,0.16546937,0.00134286,0.00073701,-0
 .00070547,0.00004295,0.00101964,0.00072777,-0.00028764,-0.00052304,0.0
 0026835,0.00630053,-0.01934959,-0.02572015,-0.00265381,-0.00100689,-0.
 00202183,0.00061514,0.00021706,-0.00023339,0.00023175,0.00021976,0.000
 09967,0.00026356,0.00027408,-0.00024901,0.00005727,0.00030521,0.000575
 10,0.00025871,-0.00008309,0.00008218,0.00198519,-0.00320846,-0.0081410
 5,0.05999921,-0.09287694,-0.05346164,-0.15081683,0.34602799,-0.0011428
 4,0.00033453,-0.00116188,-0.00049139,-0.00007846,-0.00061250,-0.000481
 65,-0.00071922,-0.00005956,0.00098504,-0.02023561,-0.01826219,-0.00134
 907,0.00053697,-0.00063691,0.00030363,0.00011171,-0.00043236,0.0002899
 9,0.00010822,-0.00004461,-0.00001464,0.00029215,-0.00017213,0.00006613
 ,0.00008862,0.00025882,0.00002266,0.00003328,0.00014786,0.02440025,0.0
 0383841,-0.04490969,0.06790461,-0.05794095,-0.14094755,-0.07209496,-0.
 02322491,0.33884073,0.00771745,0.00047592,-0.00014553,-0.00034730,-0.0
 0162228,-0.00053601,0.00004588,-0.00085839,-0.00037116,-0.00065727,-0.
 00044762,-0.00055165,0.00016609,0.00013427,-0.00023523,0.00097028,-0.0
 0088164,0.00003836,-0.00007784,-0.00002922,0.00007610,-0.00011204,-0.0
 0031246,-0.00003873,-0.00012663,-0.00008071,-0.00026081,0.00023015,-0.
 00000325,-0.00010397,-0.07063824,0.06042512,0.02336543,0.00011272,0.01
 757213,-0.00143640,0.00745094,-0.02028536,0.01302805,0.20951822,-0.000
 84162,-0.03106234,-0.01666053,-0.00026684,0.00022100,-0.00082382,-0.00
 060951,-0.00005547,0.00022134,-0.00106901,-0.00082703,0.00070719,0.000
 22751,-0.00052755,0.00044653,-0.00247055,-0.00038224,-0.00002385,0.000
 14301,0.00014808,-0.00002111,0.00017515,0.00047638,0.00008828,-0.00005
 957,-0.00010441,0.00046190,0.00023711,-0.00003945,0.00027358,0.0679155
 7,-0.19712511,-0.02154636,0.00993017,-0.05140033,0.02094532,-0.0071666
 4,-0.01756890,0.02839409,-0.07243754,0.36518767,0.00506431,-0.02324409
 ,-0.00561024,-0.00008798,-0.00026248,-0.00052920,0.00023717,0.00087464
 ,0.00069305,0.00118527,-0.00059718,0.00096188,0.00046861,-0.00010001,0
 .00026122,-0.00204142,-0.00183341,-0.00124571,0.00024026,-0.00005510,-
 0.00000477,0.00007735,0.00043932,0.00013793,0.00012468,-0.00020326,0.0
 0020963,0.00018910,0.00013103,0.00015119,0.02806647,-0.01996845,-0.049
 65535,-0.00282288,0.01071624,-0.00756702,0.00240399,0.05177957,-0.0430
 0301,-0.16563419,-0.01218209,0.27563121,0.00075761,-0.00210389,-0.0002
 2520,-0.00006543,0.00009264,-0.00018740,-0.00009628,0.00011386,0.00024
 212,0.00102235,-0.00112047,-0.00100637,-0.00040698,-0.00006479,-0.0000
 4026,-0.00066926,-0.00015806,-0.00030701,0.00007883,0.00000768,-0.0000
 2379,0.00007869,0.00022100,0.00003077,0.00006936,0.00001582,0.00018149
 ,0.00001259,0.00001084,0.00007006,-0.02655587,0.02220902,0.02231902,-0
 .01817345,0.02456006,-0.00310950,-0.05581833,0.05754043,-0.02073422,-0
 .10008408,-0.01258022,0.08835423,0.43462924,0.00122559,-0.00290336,-0.
 00060988,-0.00007216,-0.00083619,-0.00108824,-0.00007189,-0.00039992,-
 0.00009732,0.00137887,-0.00212347,0.00015935,0.00045547,0.00011949,0.0
 0015430,-0.00054504,-0.00054652,-0.00030196,0.00007677,-0.00013127,-0.
 00006624,-0.00003924,0.00007471,0.00007365,0.00007809,-0.00011637,-0.0
 0009094,-0.00010247,0.00004497,0.00003762,0.02065302,0.01280620,-0.026
 50554,0.02771664,-0.05361197,-0.01476668,0.05029175,-0.14562047,0.0628
 8947,-0.00948767,-0.07010631,0.01701974,-0.04040367,0.43900535,0.00167
 694,-0.00035441,-0.00161640,-0.00000439,0.00007844,-0.00008842,-0.0002
 0462,-0.00118720,-0.00049381,0.00147781,-0.00137390,-0.00266152,-0.000
 75326,-0.00041012,-0.00068595,0.00050616,0.00023338,0.00024197,-0.0001
 0954,0.00011829,0.00002119,0.00010794,-0.00012095,-0.00008726,-0.00004
 419,0.00014668,0.00011325,0.00012247,-0.00013747,-0.00008827,0.0229722
 5,-0.03725228,-0.02836336,-0.00256019,-0.00436996,0.02967244,-0.017591
 06,0.05590764,-0.10192971,0.08208624,0.02491363,-0.13318211,-0.0128614
 1,0.05462378,0.39290513,-0.00029385,0.00026634,0.00007814,-0.00002892,
 -0.00013023,-0.00011890,-0.00003526,-0.00013235,-0.00006307,-0.0001452
 3,0.00016259,0.00003248,0.00003346,0.00004941,0.00009611,0.00009288,0.
 00012417,0.00004931,0.00000416,-0.00000388,-0.00001256,-0.00000588,-0.
 00002893,-0.00000556,-0.00000079,-0.00000639,-0.00002682,0.00000173,-0
 .00001555,-0.00000050,-0.00010775,-0.00102491,0.00261381,0.00014599,0.
 00095932,-0.00056827,0.00324906,0.00916408,0.00369915,-0.00013957,0.01
 246232,0.01499756,-0.04361145,-0.03360285,-0.02694587,0.04690823,-0.00
 012016,0.00010380,-0.00005815,0.00004497,0.00004517,0.00013110,0.00006
 018,0.00016578,0.00015273,0.00041366,-0.00016953,-0.00032522,-0.000051
 74,0.00000002,-0.00011025,0.00007707,-0.00000056,0.00007153,-0.0000241
 8,-0.00003127,0.00000709,-0.00000234,-0.00004588,0.00000514,0.00000988
 ,0.00001293,-0.00004327,-0.00001297,-0.00000447,-0.00004096,-0.0001153
 0,-0.00136725,0.00103302,-0.00185478,-0.00351656,0.00202129,0.00568650
 ,-0.03780038,-0.00866594,0.00273213,0.00328952,-0.00946345,-0.02857430
 ,-0.13385916,-0.07987665,0.02623461,0.17379611,0.00033370,-0.00044506,
 0.00007019,0.00004815,0.00014962,0.00007607,0.00004664,0.00005357,-0.0
 0003811,-0.00032529,0.00009141,0.00019500,0.00012263,0.00006530,0.0000
 5991,-0.00008864,-0.00007150,0.00000109,-0.00001540,-0.00003036,-0.000
 00266,-0.00000608,-0.00003291,0.00002409,0.00000588,-0.00001461,-0.000
 03989,-0.00001094,0.00000035,-0.00002715,-0.00049782,0.00151464,-0.004
 33336,0.00111063,0.00195718,-0.00243790,-0.00183186,0.00511052,0.01010
 003,0.01059227,-0.02034474,-0.02760095,-0.02316303,-0.08097890,-0.1020
 1526,0.01993170,0.10188110,0.12703907,0.00015584,-0.00008775,-0.000069
 87,-0.00005723,0.00011915,0.00004765,-0.00007330,-0.00001289,-0.000017
 64,0.00000801,-0.00008003,0.00004914,-0.00011344,-0.00006642,-0.000079
 43,-0.00011211,-0.00007811,-0.00006786,0.00001879,-0.00002211,-0.00001
 686,0.00003149,0.00003835,0.00000027,0.00001720,0.00000530,0.00004654,
 0.00002600,-0.00002567,-0.00000838,-0.00165577,-0.00056091,0.00038576,
 -0.00061713,0.00100495,0.00028151,-0.01521389,0.01216407,-0.01299313,-
 0.03032947,-0.00475516,0.01372126,-0.18666060,-0.01849926,-0.04894907,
 -0.00604305,-0.00473876,-0.00633246,0.24048010,0.00020859,-0.00010561,
 0.00005040,0.00010175,-0.00020975,-0.00031022,0.00002672,-0.00073164,-
 0.00044304,-0.00024019,0.00012071,0.00019297,-0.00007722,0.00000189,0.
 00001149,-0.00006097,0.00000148,-0.00000195,-0.00005838,-0.00004136,-0
 .00000033,0.00002565,-0.00001410,0.00002378,0.00001769,0.00001265,-0.0
 0000399,-0.00001776,0.00000057,-0.00004379,-0.00062335,-0.00111746,-0.
 00073438,0.00191496,0.00073719,0.00358591,0.02591901,-0.01217426,0.012
 62147,-0.00405003,0.00494501,0.00436810,-0.02295130,-0.03566132,-0.011
 65549,-0.01498511,-0.00071031,-0.00877028,0.01504490,0.04513167,-0.000
 24525,0.00029894,-0.00003035,0.00001310,-0.00059005,-0.00050040,0.0000
 3359,-0.00016810,0.00003756,0.00032689,-0.00008538,-0.00010881,-0.0000
 6253,-0.00000331,-0.00003690,-0.00008001,0.00001142,-0.00003779,-0.000
 00796,-0.00003129,0.00000305,0.00001261,0.00000910,0.00001126,0.000034
 03,0.00001075,-0.00000125,-0.00003854,-0.00000647,-0.00004610,0.002651
 73,0.00363749,0.00069524,-0.00134675,-0.00097149,-0.00219763,-0.015536
 09,0.01340706,-0.00424751,0.02714301,0.00041225,-0.00625008,-0.0522986
 0,-0.01067939,-0.04635599,-0.01404112,-0.00652402,-0.00140576,0.053693
 92,0.00175834,0.06027149,-0.00019546,-0.00053730,-0.00034331,-0.000089
 74,0.00018366,0.00021532,-0.00011483,-0.00021866,-0.00068369,-0.015689
 61,-0.00122395,-0.01635600,-0.00021106,0.00048243,0.00019802,0.0001199
 0,0.00028787,-0.00004948,-0.00009055,-0.00000723,-0.00004322,-0.000003
 44,-0.00006699,0.00010669,0.00005060,0.00002443,-0.00001826,0.00003361
 ,-0.00001082,-0.00005431,0.00394795,0.00088483,-0.00191876,-0.13531134
 ,0.05077641,-0.07077909,-0.02189009,0.02367866,-0.00028864,0.00079318,
 -0.00236999,0.00078349,-0.00250497,0.00004869,0.00263081,-0.00000690,0
 .00026655,-0.00005061,-0.00009717,0.00033228,-0.00027463,0.17062503,0.
 00016441,-0.00004936,0.00033423,-0.00020763,0.00007834,0.00013926,-0.0
 0062698,-0.00086062,-0.00123826,-0.01191898,0.00397956,-0.00791677,-0.
 00037894,0.00026668,0.00019296,0.00016052,0.00011734,-0.00000190,-0.00
 014789,0.00019189,-0.00009418,-0.00012679,0.00008434,-0.00017325,-0.00
 003171,0.00002918,0.00003204,0.00007838,0.00000059,0.00003351,0.008797
 77,-0.00656143,0.01138644,0.05085913,-0.05852797,0.03951484,0.02243846
 ,-0.01718499,-0.00035881,0.00019196,-0.00053452,-0.00051195,0.00289656
 ,-0.00052593,-0.00116933,0.00005607,-0.00008410,0.00015855,0.00002771,
 -0.00045703,0.00019216,-0.07248310,0.08010144,-0.00034081,-0.00028564,
 -0.00141041,-0.00001074,0.00015615,-0.00007647,0.00030966,-0.00020449,
 -0.00064659,-0.01584218,-0.00239152,-0.00847357,-0.00008601,-0.0003104
 6,-0.00024542,-0.00001958,-0.00002388,-0.00004050,-0.00009047,-0.00001
 234,-0.00000470,-0.00004755,-0.00012432,0.00004657,-0.00002106,-0.0000
 5202,-0.00008134,-0.00001584,0.00000942,-0.00003839,-0.01071928,0.0119
 0493,-0.01192128,-0.07396087,0.04336301,-0.08378688,0.01119898,-0.0133
 6808,0.00882815,-0.00031758,0.00194633,-0.00073636,0.00293011,0.000638
 07,-0.00454276,0.00018988,-0.00011547,0.00038090,-0.00015538,-0.000581
 15,0.00033251,0.08677539,-0.04061431,0.10241710,-0.01946375,-0.0123610
 9,-0.00311023,-0.00003834,-0.00057387,0.00008387,-0.00004107,0.0002116
 2,0.00013667,-0.00038456,-0.00082963,-0.00043254,0.00000548,0.00000352
 ,0.00025784,-0.00017825,0.00019813,0.00023488,-0.00000631,-0.00006838,
 0.00001204,0.00003250,-0.00005179,0.00002681,0.00007273,0.00010228,-0.
 00013907,-0.00007086,-0.00001958,-0.00006220,-0.18941200,-0.03720838,0
 .04709145,-0.00404434,-0.00505174,0.00653140,0.00108289,-0.00000407,-0
 .00146795,-0.02474041,0.01318831,0.01411045,-0.00168848,0.00191636,-0.
 00063376,-0.00001033,0.00008564,0.00022402,-0.00023792,-0.00009070,0.0
 0024300,0.00065184,-0.00000534,0.00016223,0.23851681,-0.01593990,-0.00
 359789,-0.00318974,-0.00002643,-0.00092228,-0.00014259,-0.00009740,-0.
 00001849,0.00012558,-0.00049103,-0.00107162,0.00005204,0.00000660,-0.0
 0004110,-0.00003478,-0.00013573,-0.00025873,-0.00027774,-0.00000461,-0
 .00001069,0.00001444,-0.00004497,-0.00006361,-0.00003749,-0.00006900,-
 0.00003451,-0.00008671,-0.00011957,0.00001452,0.00001984,-0.04120041,-
 0.03923928,0.01702050,-0.01150434,-0.00247869,0.00788070,-0.00108564,-
 0.00021079,0.00212429,0.02713489,-0.00349018,-0.01699818,0.00238510,-0
 .00548669,0.00273977,0.00033397,0.00028901,-0.00022028,0.00015772,0.00
 019582,-0.00082860,-0.00000452,0.00009206,0.00014546,0.04056795,0.0564
 4376,-0.01436324,-0.00558578,0.00287756,-0.00080464,-0.00120689,-0.000
 66165,-0.00016383,0.00026221,-0.00002815,0.00034699,0.00044380,-0.0001
 9878,0.00013471,0.00001448,0.00023223,-0.00038006,0.00048773,0.0002472
 0,0.00008883,0.00000508,0.00001296,-0.00000755,0.00005738,0.00002964,-
 0.00015879,-0.00008498,0.00008912,-0.00019597,-0.00000927,0.00015292,0
 .04733189,0.01402932,-0.04897525,0.01643070,0.00704199,-0.00801101,0.0
 0074690,-0.00065861,-0.00134979,0.01218201,-0.00677431,-0.00201584,0.0
 0156241,0.00020519,-0.00039868,0.00001192,0.00004548,0.00001128,0.0000
 8149,-0.00004293,-0.00017955,0.00018427,0.00022473,0.00002180,-0.06322
 904,-0.00825194,0.05818282,-0.02210293,0.02638728,0.00317823,-0.052823
 46,0.05373176,0.00757870,0.00377798,-0.00437289,-0.00101786,-0.0006638
 2,0.00037719,-0.00027957,0.00000348,0.00036503,-0.00008064,-0.00187285
 ,0.00011923,-0.00136156,0.00002325,-0.00041516,0.00069823,0.00024102,0
 .00004725,0.00004139,0.00003943,0.00003765,0.00001575,0.00521635,-0.00
 429183,-0.00173423,-0.00021735,0.00014662,-0.00007417,0.00000886,-0.00
 011024,-0.00000569,-0.00004408,-0.00005437,0.00016494,0.00023129,0.000
 15749,0.00058936,0.00003262,-0.00010889,-0.00090058,-0.00001208,-0.000
 04237,-0.00005086,0.00023770,-0.00010965,-0.00014373,-0.00004750,0.000
 04057,-0.00001412,0.00002802,0.00013446,0.00017170,0.06745533,0.011972
 96,-0.00503510,0.00052539,0.05447416,-0.19736063,-0.01888731,0.0031126
 5,-0.02308574,0.00826776,0.00045581,-0.00056817,0.00063632,-0.00011837
 ,0.00006406,-0.00002679,-0.00049472,-0.00004130,-0.00001464,-0.0001116
 6,-0.00089164,0.00106018,0.00008549,-0.00007933,0.00003807,0.00008521,
 0.00005248,-0.00007550,0.00202442,-0.01392742,-0.00983323,-0.00050425,
 0.00157655,0.00037820,-0.00010028,0.00034208,0.00059905,0.00042726,-0.
 00087986,-0.00014858,0.00128073,-0.00070478,0.00050786,-0.00062044,0.0
 0054917,-0.00092069,0.00002975,0.00000207,-0.00005551,0.00012382,0.000
 19876,0.00024141,0.00001331,-0.00006263,-0.00000785,0.00002569,-0.0000
 6118,-0.00015357,-0.07191880,0.23938050,-0.00191300,-0.00021436,0.0031
 0150,0.00908295,-0.02048151,-0.03574951,-0.00274876,0.02144787,-0.0018
 6019,-0.00031886,0.00038946,-0.00057131,-0.00000880,0.00007281,-0.0001
 6235,0.00022434,-0.00025680,-0.00032896,0.00003930,0.00109480,-0.00161
 669,0.00002318,0.00003228,0.00001159,-0.00000447,-0.00004638,0.0000622
 5,0.00294917,-0.02033185,-0.00532549,-0.00088532,0.00045044,0.00014777
 ,-0.00022705,0.00016692,0.00011200,0.00036231,-0.00037809,0.00001290,0
 .00071312,-0.00006374,-0.00005570,-0.00111699,-0.00002172,-0.00102467,
 0.00009614,-0.00008434,-0.00007796,0.00025672,-0.00027057,-0.00013823,
 -0.00005313,-0.00002836,-0.00004760,-0.00005952,-0.00004037,-0.0000042
 2,-0.00657563,0.01781506,0.04327104,-0.00102283,-0.00017448,0.00045024
 ,-0.00012943,-0.00146122,0.00733870,-0.07195202,0.03858789,0.06336520,
 -0.02659751,0.01602744,0.01669635,-0.00188573,-0.00093218,-0.00006024,
 -0.00007904,-0.00000732,0.00036043,0.00605949,-0.00408240,-0.00456472,
 0.00002781,0.00004380,0.00000499,0.00019769,0.00000864,0.00011503,0.00
 003405,0.00001607,0.00009795,-0.00003110,-0.00012232,-0.00010522,-0.00
 033810,-0.00004832,-0.00012500,0.00020268,0.00045740,0.00019271,0.0000
 1748,0.00019014,-0.00002921,-0.00034676,-0.00090966,-0.00002114,0.0000
 0542,-0.00007439,-0.00004275,0.00023607,-0.00032665,-0.00007662,0.0000
 3061,0.00021592,0.00007482,-0.00007363,0.00000262,0.00002941,0.0004887
 3,-0.00024242,0.00016458,0.09515602,-0.00012532,-0.00022612,0.00016973
 ,-0.00486521,0.00554971,0.01216619,0.04060028,-0.07161793,-0.06364511,
 0.00803589,-0.00117267,-0.00547508,0.00046518,-0.00020376,-0.00012893,
 -0.00008298,-0.00012044,0.00003373,0.00464583,-0.01414365,-0.01830370,
 0.00002849,0.00001687,-0.00003699,0.00000250,0.00001216,-0.00000686,-0
 .00053491,-0.00099165,0.00110054,-0.00020893,0.00039867,0.00012717,-0.
 00097979,0.00069529,0.00048582,0.00099664,-0.00031386,-0.00000503,0.00
 055169,-0.00033894,-0.00041854,-0.00147792,-0.00067365,0.00006994,0.00
 008774,-0.00011486,-0.00001835,0.00024153,-0.00012301,-0.00009051,-0.0
 0005632,-0.00009310,-0.00007196,-0.00003464,-0.00004949,-0.00004905,-0
 .00012062,0.00053219,0.00074862,-0.04716864,0.08297841,0.00058556,0.00
 038857,-0.00055429,0.01214019,-0.00190859,-0.02658879,0.06393335,-0.06
 265528,-0.14236294,0.00493089,0.00017651,0.00373275,-0.00105667,-0.000
 05851,-0.00015360,-0.00013201,0.00005664,0.00010471,0.00206996,-0.0111
 0259,-0.00595211,0.00004950,-0.00007318,0.00010960,0.00015732,-0.00000
 812,-0.00003675,0.00057052,0.00111987,-0.00152726,0.00005854,0.0005760
 9,0.00009541,-0.00050437,0.00076049,0.00114960,0.00131970,0.00020223,-
 0.00041803,0.00040773,-0.00037382,-0.00058957,-0.00061710,-0.00059240,
 0.00057752,-0.00001353,-0.00004088,0.00002149,0.00012605,0.00024574,0.
 00018509,0.00001938,-0.00010163,0.00002516,0.00001987,-0.00001440,-0.0
 0003457,-0.00019957,0.00005462,0.00024379,-0.08386548,0.07334811,0.171
 97264||0.00000146,0.00000209,-0.00000173,-0.00000057,-0.00000307,-0.00
 000087,0.00000034,0.00000080,0.00000073,-0.00000009,0.00000040,-0.0000
 0131,-0.00000074,-0.00000061,0.00000130,0.00000035,-0.00000030,-0.0000
 0007,0.00000032,-0.00000022,-0.00000038,0.,-0.00000006,-0.00000010,-0.
 00000054,0.00000033,-0.00000026,0.00000019,-0.00000036,-0.00000028,-0.
 00000416,-0.00000063,0.00000272,0.00000044,0.00000305,-0.00000143,0.00
 000177,-0.00000058,0.00000143,0.00000271,-0.00000025,-0.00000056,-0.00
 000115,-0.00000329,-0.00000100,-0.00000021,0.00000056,-0.00000015,-0.0
 0000060,0.00000171,0.00000020,-0.00000061,-0.00000114,0.00000058,-0.00
 000008,0.00000055,-0.00000041,0.00000110,0.00000074,0.00000126,0.00000
 006,0.00000028,0.00000035|||@
 The archive entry for this job was punched.


 THERE ARE PEOPLE SO ADDICTED TO EXAGERATING THEY
 CAN'T TELL THE TRUTH WITHOUT LYING. -- FORTUNE COOKIE
 Job cpu time:       0 days  0 hours  0 minutes  6.0 seconds.
 Elapsed time:       0 days  0 hours  0 minutes  3.9 seconds.
 File lengths (MBytes):  RWF=     28 Int=      0 D2E=      0 Chk=      3 Scr=      1
 Normal termination of Gaussian 16 at Sat Nov 15 21:28:15 2025.
