 Default is to use a total of   8 processors:
                                8 via shared-memory
                                1 via Linda
 Entering Link 1 = C:\G16W\l1.exe PID=     17932.
  
 Copyright (c) 1988-2019, Gaussian, Inc.  All Rights Reserved.
  
 This is part of the Gaussian(R) 16 program.  It is based on
 the Gaussian(R) 09 system (copyright 2009, Gaussian, Inc.),
 the Gaussian(R) 03 system (copyright 2003, Gaussian, Inc.),
 the Gaussian(R) 98 system (copyright 1998, Gaussian, Inc.),
 the Gaussian(R) 94 system (copyright 1995, Gaussian, Inc.),
 the Gaussian 92(TM) system (copyright 1992, Gaussian, Inc.),
 the Gaussian 90(TM) system (copyright 1990, Gaussian, Inc.),
 the Gaussian 88(TM) system (copyright 1988, Gaussian, Inc.),
 the Gaussian 86(TM) system (copyright 1986, Carnegie Mellon
 University), and the Gaussian 82(TM) system (copyright 1983,
 Carnegie Mellon University). Gaussian is a federally registered
 trademark of Gaussian, Inc.
  
 This software contains proprietary and confidential information,
 including trade secrets, belonging to Gaussian, Inc.
  
 This software is provided under written license and may be
 used, copied, transmitted, or stored only in accord with that
 written license.
  
 The following legend is applicable only to US Government
 contracts under FAR:
  
                    RESTRICTED RIGHTS LEGEND
  
 Use, reproduction and disclosure by the US Government is
 subject to restrictions as set forth in subparagraphs (a)
 and (c) of the Commercial Computer Software - Restricted
 Rights clause in FAR 52.227-19.
  
 Gaussian, Inc.
 340 Quinnipiac St., Bldg. 40, Wallingford CT 06492
  
  
 ---------------------------------------------------------------
 Warning -- This program may not be used in any manner that
 competes with the business of Gaussian, Inc. or will provide
 assistance to any competitor of Gaussian, Inc.  The licensee
 of this program is prohibited from giving any competitor of
 Gaussian, Inc. access to this program.  By using this program,
 the user acknowledges that Gaussian, Inc. is engaged in the
 business of creating and licensing software in the field of
 computational chemistry and represents and warrants to the
 licensee that it is not a competitor of Gaussian, Inc. and that
 it will not use this program in any manner prohibited above.
 ---------------------------------------------------------------
  

 Cite this work as:
 Gaussian 16, Revision C.01,
 M. J. Frisch, G. W. Trucks, H. B. Schlegel, G. E. Scuseria, 
 M. A. Robb, J. R. Cheeseman, G. Scalmani, V. Barone, 
 G. A. Petersson, H. Nakatsuji, X. Li, M. Caricato, A. V. Marenich, 
 J. Bloino, B. G. Janesko, R. Gomperts, B. Mennucci, H. P. Hratchian, 
 J. V. Ortiz, A. F. Izmaylov, J. L. Sonnenberg, D. Williams-Young, 
 F. Ding, F. Lipparini, F. Egidi, J. Goings, B. Peng, A. Petrone, 
 T. Henderson, D. Ranasinghe, V. G. Zakrzewski, J. Gao, N. Rega, 
 G. Zheng, W. Liang, M. Hada, M. Ehara, K. Toyota, R. Fukuda, 
 J. Hasegawa, M. Ishida, T. Nakajima, Y. Honda, O. Kitao, H. Nakai, 
 T. Vreven, K. Throssell, J. A. Montgomery, Jr., J. E. Peralta, 
 F. Ogliaro, M. J. Bearpark, J. J. Heyd, E. N. Brothers, K. N. Kudin, 
 V. N. Staroverov, T. A. Keith, R. Kobayashi, J. Normand, 
 K. Raghavachari, A. P. Rendell, J. C. Burant, S. S. Iyengar, 
 J. Tomasi, M. Cossi, J. M. Millam, M. Klene, C. Adamo, R. Cammi, 
 J. W. Ochterski, R. L. Martin, K. Morokuma, O. Farkas, 
 J. B. Foresman, and D. J. Fox, Gaussian, Inc., Wallingford CT, 2019.
 
 ******************************************
 Gaussian 16:  EM64W-G16RevC.01 30-May-2019
                13-Nov-2025 
 ******************************************
 %chk=C:\Users\al6323\OneDrive - Imperial College London\Desktop\TSR20251113\Exer
 cise 2\Product_PM6_exo.chk
 Default route: MaxDisk=10GB
 ----------------------------------------------------------------------
 # opt=(calcfc,tight,maxcycles=200,maxstep=4) freq pm6 nosymm geom=conn
 ectivity scf=(xqc,tight)
 ----------------------------------------------------------------------
 1/6=200,7=10,8=4,10=4,18=20,19=15,26=1,38=1,57=2/1,3;
 2/9=110,12=2,15=1,17=6,18=5,40=1/2;
 3/5=2,25=1,41=3900000,71=2,140=1/1,2,3;
 4/35=1/1;
 5/5=2,8=3,13=1,32=2,35=1,38=5/2,8;
 8/6=4,10=90,11=11/1;
 11/6=1,8=1,9=11,15=111,16=1,31=1/1,2,10;
 10/6=1,13=1,31=1/2;
 6/7=2,8=2,9=2,10=2,28=1/1;
 7/10=1,25=1,30=1/1,2,3,16;
 1/6=200,7=10,8=4,10=4,18=20,19=15,26=1/3(2);
 2/9=110,15=1/2;
 99//99;
 2/9=110,15=1/2;
 3/5=2,25=1,41=3900000,71=1,135=20/1,2,3;
 4/5=5,16=3,35=1/1;
 5/5=2,8=3,13=1,32=2,35=1,38=5/2,8;
 7/30=1/1,2,3,16;
 1/6=200,7=10,8=4,18=20,19=15,26=1/3(-5);
 2/9=110,15=1/2;
 6/7=2,8=2,9=2,10=2,19=2,28=1/1;
 99/9=1/99;
 -------------------
 Title Card Required
 -------------------
 Symbolic Z-matrix:
 Charge =  0 Multiplicity = 1
 C                    -0.59718   0.60907   0.51471 
 C                     0.91801   0.60968   0.27854 
 C                     0.77056   1.27926  -1.07296 
 C                    -0.70977   1.59779  -0.82608 
 C                    -1.20683   2.68481   0.11432 
 C                    -1.15118   1.88535   1.223 
 H                     1.40998   1.40121  -1.92218 
 H                    -1.4998    3.70271  -0.03718 
 H                    -1.40244   2.07472   2.24569 
 H                     1.75082   0.33247   0.8905 
 C                    -1.5796   -0.32715  -0.16738 
 C                    -1.71368   0.49741  -1.30382 
 O                    -1.24635  -0.25781  -2.4214 
 O                    -1.02164  -1.57004  -0.58766 
 C                    -0.2882   -1.0713   -1.72006 
 H                     0.08581  -1.86463  -2.33296 
 H                     0.53586  -0.4724   -1.39271 
 H                    -2.69168   0.88099  -1.50702 
 H                    -2.46461  -0.50868   0.40595 
 

 GradGradGradGradGradGradGradGradGradGradGradGradGradGradGradGradGradGrad
 Berny optimization.
 Initialization pass.
                           ----------------------------
                           !    Initial Parameters    !
                           ! (Angstroms and Degrees)  !
 --------------------------                            --------------------------
 ! Name  Definition              Value          Derivative Info.                !
 --------------------------------------------------------------------------------
 ! R1    R(1,2)                  1.5335         calculate D2E/DX2 analytically  !
 ! R2    R(1,6)                  1.5612         calculate D2E/DX2 analytically  !
 ! R3    R(1,11)                 1.5188         calculate D2E/DX2 analytically  !
 ! R4    R(2,3)                  1.5155         calculate D2E/DX2 analytically  !
 ! R5    R(2,10)                 1.07           calculate D2E/DX2 analytically  !
 ! R6    R(3,4)                  1.5342         calculate D2E/DX2 analytically  !
 ! R7    R(3,7)                  1.07           calculate D2E/DX2 analytically  !
 ! R8    R(4,5)                  1.5209         calculate D2E/DX2 analytically  !
 ! R9    R(4,12)                 1.5643         calculate D2E/DX2 analytically  !
 ! R10   R(5,6)                  1.368          calculate D2E/DX2 analytically  !
 ! R11   R(5,8)                  1.07           calculate D2E/DX2 analytically  !
 ! R12   R(6,9)                  1.07           calculate D2E/DX2 analytically  !
 ! R13   R(11,12)                1.4105         calculate D2E/DX2 analytically  !
 ! R14   R(11,14)                1.4257         calculate D2E/DX2 analytically  !
 ! R15   R(11,19)                1.07           calculate D2E/DX2 analytically  !
 ! R16   R(12,13)                1.4275         calculate D2E/DX2 analytically  !
 ! R17   R(12,18)                1.07           calculate D2E/DX2 analytically  !
 ! R18   R(13,15)                1.4393         calculate D2E/DX2 analytically  !
 ! R19   R(14,15)                1.4384         calculate D2E/DX2 analytically  !
 ! R20   R(15,16)                1.07           calculate D2E/DX2 analytically  !
 ! R21   R(15,17)                1.07           calculate D2E/DX2 analytically  !
 ! A1    A(2,1,6)              114.8444         calculate D2E/DX2 analytically  !
 ! A2    A(2,1,11)             124.7633         calculate D2E/DX2 analytically  !
 ! A3    A(6,1,11)             118.5616         calculate D2E/DX2 analytically  !
 ! A4    A(1,2,3)               92.3719         calculate D2E/DX2 analytically  !
 ! A5    A(1,2,10)             132.9098         calculate D2E/DX2 analytically  !
 ! A6    A(3,2,10)             134.4466         calculate D2E/DX2 analytically  !
 ! A7    A(2,3,4)               92.4131         calculate D2E/DX2 analytically  !
 ! A8    A(2,3,7)              134.4271         calculate D2E/DX2 analytically  !
 ! A9    A(4,3,7)              132.8952         calculate D2E/DX2 analytically  !
 ! A10   A(3,4,5)              124.2803         calculate D2E/DX2 analytically  !
 ! A11   A(3,4,12)             115.0907         calculate D2E/DX2 analytically  !
 ! A12   A(5,4,12)             118.808          calculate D2E/DX2 analytically  !
 ! A13   A(4,5,6)               94.021          calculate D2E/DX2 analytically  !
 ! A14   A(4,5,8)              132.9901         calculate D2E/DX2 analytically  !
 ! A15   A(6,5,8)              132.9878         calculate D2E/DX2 analytically  !
 ! A16   A(1,6,5)               97.1521         calculate D2E/DX2 analytically  !
 ! A17   A(1,6,9)              131.4238         calculate D2E/DX2 analytically  !
 ! A18   A(5,6,9)              131.4236         calculate D2E/DX2 analytically  !
 ! A19   A(1,11,12)             93.6107         calculate D2E/DX2 analytically  !
 ! A20   A(1,11,14)            114.6195         calculate D2E/DX2 analytically  !
 ! A21   A(1,11,19)            113.5118         calculate D2E/DX2 analytically  !
 ! A22   A(12,11,14)           108.0183         calculate D2E/DX2 analytically  !
 ! A23   A(12,11,19)           116.8901         calculate D2E/DX2 analytically  !
 ! A24   A(14,11,19)           109.4962         calculate D2E/DX2 analytically  !
 ! A25   A(4,12,11)             95.9785         calculate D2E/DX2 analytically  !
 ! A26   A(4,12,13)            113.6507         calculate D2E/DX2 analytically  !
 ! A27   A(4,12,18)            113.1056         calculate D2E/DX2 analytically  !
 ! A28   A(11,12,13)           106.8812         calculate D2E/DX2 analytically  !
 ! A29   A(11,12,18)           116.7102         calculate D2E/DX2 analytically  !
 ! A30   A(13,12,18)           109.8893         calculate D2E/DX2 analytically  !
 ! A31   A(12,13,15)            97.7853         calculate D2E/DX2 analytically  !
 ! A32   A(11,14,15)            97.4323         calculate D2E/DX2 analytically  !
 ! A33   A(13,15,14)           103.8948         calculate D2E/DX2 analytically  !
 ! A34   A(13,15,16)           111.8768         calculate D2E/DX2 analytically  !
 ! A35   A(13,15,17)           110.2065         calculate D2E/DX2 analytically  !
 ! A36   A(14,15,16)           111.8451         calculate D2E/DX2 analytically  !
 ! A37   A(14,15,17)           110.2382         calculate D2E/DX2 analytically  !
 ! A38   A(16,15,17)           108.7256         calculate D2E/DX2 analytically  !
 ! D1    D(6,1,2,3)            -89.4617         calculate D2E/DX2 analytically  !
 ! D2    D(6,1,2,10)            85.0323         calculate D2E/DX2 analytically  !
 ! D3    D(11,1,2,3)            74.8379         calculate D2E/DX2 analytically  !
 ! D4    D(11,1,2,10)         -110.6681         calculate D2E/DX2 analytically  !
 ! D5    D(2,1,6,5)             81.2375         calculate D2E/DX2 analytically  !
 ! D6    D(2,1,6,9)            -98.5507         calculate D2E/DX2 analytically  !
 ! D7    D(11,1,6,5)           -84.1009         calculate D2E/DX2 analytically  !
 ! D8    D(11,1,6,9)            96.1109         calculate D2E/DX2 analytically  !
 ! D9    D(2,1,11,12)          -85.3615         calculate D2E/DX2 analytically  !
 ! D10   D(2,1,11,14)           26.3446         calculate D2E/DX2 analytically  !
 ! D11   D(2,1,11,19)          153.1946         calculate D2E/DX2 analytically  !
 ! D12   D(6,1,11,12)           78.403          calculate D2E/DX2 analytically  !
 ! D13   D(6,1,11,14)         -169.8909         calculate D2E/DX2 analytically  !
 ! D14   D(6,1,11,19)          -43.041          calculate D2E/DX2 analytically  !
 ! D15   D(1,2,3,4)             11.0306         calculate D2E/DX2 analytically  !
 ! D16   D(1,2,3,7)           -163.3931         calculate D2E/DX2 analytically  !
 ! D17   D(10,2,3,4)          -163.3201         calculate D2E/DX2 analytically  !
 ! D18   D(10,2,3,7)            22.2562         calculate D2E/DX2 analytically  !
 ! D19   D(2,3,4,5)             74.0004         calculate D2E/DX2 analytically  !
 ! D20   D(2,3,4,12)           -90.3895         calculate D2E/DX2 analytically  !
 ! D21   D(7,3,4,5)           -111.435          calculate D2E/DX2 analytically  !
 ! D22   D(7,3,4,12)            84.1751         calculate D2E/DX2 analytically  !
 ! D23   D(3,4,5,6)            -85.1517         calculate D2E/DX2 analytically  !
 ! D24   D(3,4,5,8)             95.2069         calculate D2E/DX2 analytically  !
 ! D25   D(12,4,5,6)            78.7004         calculate D2E/DX2 analytically  !
 ! D26   D(12,4,5,8)          -100.9409         calculate D2E/DX2 analytically  !
 ! D27   D(3,4,12,11)           81.8553         calculate D2E/DX2 analytically  !
 ! D28   D(3,4,12,13)          -29.5285         calculate D2E/DX2 analytically  !
 ! D29   D(3,4,12,18)         -155.7308         calculate D2E/DX2 analytically  !
 ! D30   D(5,4,12,11)          -83.4451         calculate D2E/DX2 analytically  !
 ! D31   D(5,4,12,13)          165.1711         calculate D2E/DX2 analytically  !
 ! D32   D(5,4,12,18)           38.9688         calculate D2E/DX2 analytically  !
 ! D33   D(4,5,6,1)              1.3444         calculate D2E/DX2 analytically  !
 ! D34   D(4,5,6,9)           -178.8673         calculate D2E/DX2 analytically  !
 ! D35   D(8,5,6,1)           -179.0142         calculate D2E/DX2 analytically  !
 ! D36   D(8,5,6,9)              0.7741         calculate D2E/DX2 analytically  !
 ! D37   D(1,11,12,4)            0.9969         calculate D2E/DX2 analytically  !
 ! D38   D(1,11,12,13)         117.9524         calculate D2E/DX2 analytically  !
 ! D39   D(1,11,12,18)        -118.6333         calculate D2E/DX2 analytically  !
 ! D40   D(14,11,12,4)        -116.3561         calculate D2E/DX2 analytically  !
 ! D41   D(14,11,12,13)          0.5994         calculate D2E/DX2 analytically  !
 ! D42   D(14,11,12,18)        124.0137         calculate D2E/DX2 analytically  !
 ! D43   D(19,11,12,4)         119.6949         calculate D2E/DX2 analytically  !
 ! D44   D(19,11,12,13)       -123.3496         calculate D2E/DX2 analytically  !
 ! D45   D(19,11,12,18)          0.0647         calculate D2E/DX2 analytically  !
 ! D46   D(1,11,14,15)         -74.3035         calculate D2E/DX2 analytically  !
 ! D47   D(12,11,14,15)         28.5173         calculate D2E/DX2 analytically  !
 ! D48   D(19,11,14,15)        156.8112         calculate D2E/DX2 analytically  !
 ! D49   D(4,12,13,15)          75.1361         calculate D2E/DX2 analytically  !
 ! D50   D(11,12,13,15)        -29.4436         calculate D2E/DX2 analytically  !
 ! D51   D(18,12,13,15)       -156.9828         calculate D2E/DX2 analytically  !
 ! D52   D(12,13,15,14)         48.8918         calculate D2E/DX2 analytically  !
 ! D53   D(12,13,15,16)        169.7149         calculate D2E/DX2 analytically  !
 ! D54   D(12,13,15,17)        -69.1926         calculate D2E/DX2 analytically  !
 ! D55   D(11,14,15,13)        -48.2762         calculate D2E/DX2 analytically  !
 ! D56   D(11,14,15,16)       -169.1206         calculate D2E/DX2 analytically  !
 ! D57   D(11,14,15,17)         69.7863         calculate D2E/DX2 analytically  !
 --------------------------------------------------------------------------------
 Trust Radius=4.00D-02 FncErr=1.00D-07 GrdErr=1.00D-07 EigMax=2.50D+02 EigMin=1.00D-04
 Number of steps in this run=    114 maximum allowed number of steps=    114.
 GradGradGradGradGradGradGradGradGradGradGradGradGradGradGradGradGradGrad

                          Input orientation:                          
 ---------------------------------------------------------------------
 Center     Atomic      Atomic             Coordinates (Angstroms)
 Number     Number       Type             X           Y           Z
 ---------------------------------------------------------------------
      1          6           0       -0.597178    0.609065    0.514712
      2          6           0        0.918014    0.609678    0.278539
      3          6           0        0.770561    1.279260   -1.072963
      4          6           0       -0.709772    1.597785   -0.826077
      5          6           0       -1.206831    2.684814    0.114323
      6          6           0       -1.151179    1.885346    1.223001
      7          1           0        1.409981    1.401205   -1.922181
      8          1           0       -1.499803    3.702711   -0.037181
      9          1           0       -1.402444    2.074725    2.245694
     10          1           0        1.750815    0.332467    0.890500
     11          6           0       -1.579602   -0.327149   -0.167377
     12          6           0       -1.713684    0.497412   -1.303816
     13          8           0       -1.246350   -0.257815   -2.421402
     14          8           0       -1.021636   -1.570039   -0.587660
     15          6           0       -0.288198   -1.071298   -1.720056
     16          1           0        0.085807   -1.864627   -2.332958
     17          1           0        0.535856   -0.472397   -1.392713
     18          1           0       -2.691681    0.880988   -1.507022
     19          1           0       -2.464610   -0.508680    0.405954
 ---------------------------------------------------------------------
                    Distance matrix (angstroms):
                    1          2          3          4          5
     1  C    0.000000
     2  C    1.533488   0.000000
     3  C    2.200132   1.515467   0.000000
     4  C    1.669719   2.201413   1.534208   0.000000
     5  C    2.200164   2.974579   2.700983   1.520872   0.000000
     6  C    1.561244   2.607853   3.054811   2.115715   1.367995
     7  H    3.254938   2.389919   1.070000   2.394460   3.555658
     8  H    3.269551   3.938574   3.478578   2.382691   1.070000
     9  H    2.406847   3.376475   4.045763   3.184814   2.225582
    10  H    2.393908   1.070000   2.390084   3.256095   3.857935
    11  C    1.518848   2.704547   2.987290   2.212659   3.047988
    12  C    2.136843   3.072831   2.614584   1.564255   2.655700
    13  O    3.129484   3.567450   2.872075   2.505240   3.884653
    14  O    2.478685   3.043634   3.400881   3.192054   4.316346
    15  C    2.813054   2.876631   2.657973   2.846212   4.279860
    16  H    3.833385   3.692515   3.455503   3.859007   5.325177
    17  H    2.468116   2.027317   1.796004   2.481596   3.908465
    18  H    2.923747   4.036302   3.512000   2.214824   2.843822
    19  H    2.179102   3.564983   3.981237   3.005753   3.444627
                    6          7          8          9         10
     6  C    0.000000
     7  H    4.084862   0.000000
     8  H    2.238841   4.161369   0.000000
     9  H    1.070000   5.072922   2.805590   0.000000
    10  H    3.308105   3.028125   4.773432   3.849033   0.000000
    11  C    2.647986   3.873519   4.032752   3.409295   3.556104
    12  C    2.937274   3.310061   3.453121   3.896640   4.104264
    13  O    4.228932   3.171382   4.629741   5.219855   4.505566
    14  O    3.903198   4.064726   5.322927   4.632193   3.673005
    15  C    4.260054   3.006316   5.204921   5.183259   3.597656
    16  H    5.313876   3.547934   6.227358   6.220726   4.241480
    17  H    3.904741   2.134201   4.838688   4.845910   2.708689
    18  H    3.291642   4.155311   3.397517   4.143672   5.077869
    19  H    2.850268   4.907171   4.343159   3.344670   4.325751
                   11         12         13         14         15
    11  C    0.000000
    12  C    1.410451   0.000000
    13  O    2.279582   1.427504   0.000000
    14  O    1.425741   2.294812   2.266062   0.000000
    15  C    2.152276   2.160120   1.439339   1.438400   0.000000
    16  H    3.134831   3.142695   2.089093   2.087888   1.070000
    17  H    2.449022   2.451299   2.068938   2.068504   1.070000
    18  H    2.119189   1.070000   2.054736   3.105126   3.103793
    19  H    1.070000   2.121184   3.088855   2.048395   3.094062
                   16         17         18         19
    16  H    0.000000
    17  H    1.739226   0.000000
    18  H    3.991868   3.501673   0.000000
    19  H    3.980559   3.498473   2.375335   0.000000
 Symmetry turned off by external request.
 Stoichiometry    C9H8O2
 Framework group  C1[X(C9H8O2)]
 Deg. of freedom    51
 Full point group                 C1      NOp   1
 Rotational constants (GHZ):           2.3091450           1.2398394           1.2164544
 Standard basis: VSTO-6G (5D, 7F)
    52 basis functions,   312 primitive gaussians,    52 cartesian basis functions
    28 alpha electrons       28 beta electrons
       nuclear repulsion energy       353.1211357096 Hartrees.
 Integral buffers will be    131072 words long.
 Regular integral format.
 Two-electron integral symmetry is turned off.
 Do NDO integrals.
 One-electron integrals computed using PRISM.
 NBasis=    52 RedAO= F EigKep=  0.00D+00  NBF=    52
 NBsUse=    52 1.00D-04 EigRej=  0.00D+00 NBFU=    52
 Simple Huckel Guess.
 Keep J ints in memory in canonical form, NReq=867036.
 Overlap will be assumed to be unity.
 Requested convergence on RMS density matrix=1.00D-08 within  32 cycles.
 Requested convergence on MAX density matrix=1.00D-06.
 Requested convergence on             energy=1.00D-06.
 No special actions if energy rises.
 SCF Done:  E(RPM6) =  0.182999944199     A.U. after   17 cycles
            NFock= 16  Conv=0.43D-08     -V/T= 1.0017
 QCSCF skips out because SCF is already converged.
 Range of M.O.s used for correlation:     1    52
 NBasis=    52 NAE=    28 NBE=    28 NFC=     0 NFV=     0
 NROrb=     52 NOA=    28 NOB=    28 NVA=    24 NVB=    24
 Symmetrizing basis deriv contribution to polar:
 IMax=3 JMax=2 DiffMx= 0.00D+00
 G2DrvN: will do    20 centers at a time, making    1 passes.
 Calling FoFCou, ICntrl=  3107 FMM=F I1Cent=   0 AccDes= 0.00D+00.
 End of G2Drv F.D. properties file   721 does not exist.
 End of G2Drv F.D. properties file   722 does not exist.
 End of G2Drv F.D. properties file   788 does not exist.
          IDoAtm=1111111111111111111
          Differentiating once with respect to nuclear coordinates.
          Electric field/nuclear overlap derivatives assumed to be zero.
 Keep J ints in memory in canonical form, NReq=869000.
          There are    60 degrees of freedom in the 1st order CPHF.  IDoFFX=5 NUNeed=    60.
 LinEq1:  Iter=  0 NonCon=    57 RMS=1.26D-02 Max=1.01D-01 NDo=    57
 AX will form    60 AO Fock derivatives at one time.
 LinEq1:  Iter=  1 NonCon=    57 RMS=1.72D-03 Max=1.59D-02 NDo=    60
 LinEq1:  Iter=  2 NonCon=    57 RMS=4.00D-04 Max=2.92D-03 NDo=    60
 LinEq1:  Iter=  3 NonCon=    57 RMS=9.90D-05 Max=9.80D-04 NDo=    60
 LinEq1:  Iter=  4 NonCon=    57 RMS=1.83D-05 Max=2.24D-04 NDo=    60
 LinEq1:  Iter=  5 NonCon=    57 RMS=4.85D-06 Max=4.93D-05 NDo=    60
 LinEq1:  Iter=  6 NonCon=    57 RMS=1.03D-06 Max=1.05D-05 NDo=    60
 LinEq1:  Iter=  7 NonCon=    57 RMS=2.00D-07 Max=1.67D-06 NDo=    60
 LinEq1:  Iter=  8 NonCon=    31 RMS=3.92D-08 Max=4.33D-07 NDo=    60
 LinEq1:  Iter=  9 NonCon=     0 RMS=6.21D-09 Max=5.29D-08 NDo=    31
 Linear equations converged to 1.000D-08 1.000D-07 after     9 iterations.
 End of Minotr F.D. properties file   721 does not exist.
 End of Minotr F.D. properties file   722 does not exist.
 End of Minotr F.D. properties file   788 does not exist.

 **********************************************************************

            Population analysis using the SCF Density.

 **********************************************************************

 Alpha  occ. eigenvalues --   -1.26006  -1.14561  -1.07272  -1.01193  -0.97450
 Alpha  occ. eigenvalues --   -0.88561  -0.85729  -0.78135  -0.77143  -0.73922
 Alpha  occ. eigenvalues --   -0.68284  -0.65696  -0.63069  -0.60866  -0.59604
 Alpha  occ. eigenvalues --   -0.56258  -0.55716  -0.53231  -0.51749  -0.49450
 Alpha  occ. eigenvalues --   -0.48147  -0.46357  -0.45373  -0.41901  -0.39951
 Alpha  occ. eigenvalues --   -0.38391  -0.37011  -0.33676
 Alpha virt. eigenvalues --   -0.01162   0.01197   0.04289   0.06657   0.06765
 Alpha virt. eigenvalues --    0.09211   0.10713   0.11431   0.11781   0.12220
 Alpha virt. eigenvalues --    0.12690   0.12970   0.14241   0.15241   0.15770
 Alpha virt. eigenvalues --    0.18635   0.18726   0.19535   0.19801   0.19886
 Alpha virt. eigenvalues --    0.20745   0.20881   0.21026   0.21504
          Condensed to atoms (all electrons):
               1          2          3          4          5          6
     1  C    4.101809   0.000000   0.000000   0.000000   0.000000   0.000000
     2  C    0.000000   4.129794   0.000000   0.000000   0.000000   0.000000
     3  C    0.000000   0.000000   4.142063   0.000000   0.000000   0.000000
     4  C    0.000000   0.000000   0.000000   4.070990   0.000000   0.000000
     5  C    0.000000   0.000000   0.000000   0.000000   4.152769   0.000000
     6  C    0.000000   0.000000   0.000000   0.000000   0.000000   4.142754
     7  H    0.000000   0.000000   0.000000   0.000000   0.000000   0.000000
     8  H    0.000000   0.000000   0.000000   0.000000   0.000000   0.000000
     9  H    0.000000   0.000000   0.000000   0.000000   0.000000   0.000000
    10  H    0.000000   0.000000   0.000000   0.000000   0.000000   0.000000
    11  C    0.000000   0.000000   0.000000   0.000000   0.000000   0.000000
    12  C    0.000000   0.000000   0.000000   0.000000   0.000000   0.000000
    13  O    0.000000   0.000000   0.000000   0.000000   0.000000   0.000000
    14  O    0.000000   0.000000   0.000000   0.000000   0.000000   0.000000
    15  C    0.000000   0.000000   0.000000   0.000000   0.000000   0.000000
    16  H    0.000000   0.000000   0.000000   0.000000   0.000000   0.000000
    17  H    0.000000   0.000000   0.000000   0.000000   0.000000   0.000000
    18  H    0.000000   0.000000   0.000000   0.000000   0.000000   0.000000
    19  H    0.000000   0.000000   0.000000   0.000000   0.000000   0.000000
               7          8          9         10         11         12
     1  C    0.000000   0.000000   0.000000   0.000000   0.000000   0.000000
     2  C    0.000000   0.000000   0.000000   0.000000   0.000000   0.000000
     3  C    0.000000   0.000000   0.000000   0.000000   0.000000   0.000000
     4  C    0.000000   0.000000   0.000000   0.000000   0.000000   0.000000
     5  C    0.000000   0.000000   0.000000   0.000000   0.000000   0.000000
     6  C    0.000000   0.000000   0.000000   0.000000   0.000000   0.000000
     7  H    0.833109   0.000000   0.000000   0.000000   0.000000   0.000000
     8  H    0.000000   0.831376   0.000000   0.000000   0.000000   0.000000
     9  H    0.000000   0.000000   0.839278   0.000000   0.000000   0.000000
    10  H    0.000000   0.000000   0.000000   0.834276   0.000000   0.000000
    11  C    0.000000   0.000000   0.000000   0.000000   3.923102   0.000000
    12  C    0.000000   0.000000   0.000000   0.000000   0.000000   3.938954
    13  O    0.000000   0.000000   0.000000   0.000000   0.000000   0.000000
    14  O    0.000000   0.000000   0.000000   0.000000   0.000000   0.000000
    15  C    0.000000   0.000000   0.000000   0.000000   0.000000   0.000000
    16  H    0.000000   0.000000   0.000000   0.000000   0.000000   0.000000
    17  H    0.000000   0.000000   0.000000   0.000000   0.000000   0.000000
    18  H    0.000000   0.000000   0.000000   0.000000   0.000000   0.000000
    19  H    0.000000   0.000000   0.000000   0.000000   0.000000   0.000000
              13         14         15         16         17         18
     1  C    0.000000   0.000000   0.000000   0.000000   0.000000   0.000000
     2  C    0.000000   0.000000   0.000000   0.000000   0.000000   0.000000
     3  C    0.000000   0.000000   0.000000   0.000000   0.000000   0.000000
     4  C    0.000000   0.000000   0.000000   0.000000   0.000000   0.000000
     5  C    0.000000   0.000000   0.000000   0.000000   0.000000   0.000000
     6  C    0.000000   0.000000   0.000000   0.000000   0.000000   0.000000
     7  H    0.000000   0.000000   0.000000   0.000000   0.000000   0.000000
     8  H    0.000000   0.000000   0.000000   0.000000   0.000000   0.000000
     9  H    0.000000   0.000000   0.000000   0.000000   0.000000   0.000000
    10  H    0.000000   0.000000   0.000000   0.000000   0.000000   0.000000
    11  C    0.000000   0.000000   0.000000   0.000000   0.000000   0.000000
    12  C    0.000000   0.000000   0.000000   0.000000   0.000000   0.000000
    13  O    6.395953   0.000000   0.000000   0.000000   0.000000   0.000000
    14  O    0.000000   6.392086   0.000000   0.000000   0.000000   0.000000
    15  C    0.000000   0.000000   3.876841   0.000000   0.000000   0.000000
    16  H    0.000000   0.000000   0.000000   0.857592   0.000000   0.000000
    17  H    0.000000   0.000000   0.000000   0.000000   0.855546   0.000000
    18  H    0.000000   0.000000   0.000000   0.000000   0.000000   0.842175
    19  H    0.000000   0.000000   0.000000   0.000000   0.000000   0.000000
              19
     1  C    0.000000
     2  C    0.000000
     3  C    0.000000
     4  C    0.000000
     5  C    0.000000
     6  C    0.000000
     7  H    0.000000
     8  H    0.000000
     9  H    0.000000
    10  H    0.000000
    11  C    0.000000
    12  C    0.000000
    13  O    0.000000
    14  O    0.000000
    15  C    0.000000
    16  H    0.000000
    17  H    0.000000
    18  H    0.000000
    19  H    0.839533
 Mulliken charges:
               1
     1  C   -0.101809
     2  C   -0.129794
     3  C   -0.142063
     4  C   -0.070990
     5  C   -0.152769
     6  C   -0.142754
     7  H    0.166891
     8  H    0.168624
     9  H    0.160722
    10  H    0.165724
    11  C    0.076898
    12  C    0.061046
    13  O   -0.395953
    14  O   -0.392086
    15  C    0.123159
    16  H    0.142408
    17  H    0.144454
    18  H    0.157825
    19  H    0.160467
 Sum of Mulliken charges =   0.00000
 Mulliken charges with hydrogens summed into heavy atoms:
               1
     1  C   -0.101809
     2  C    0.035930
     3  C    0.024828
     4  C   -0.070990
     5  C    0.015855
     6  C    0.017968
    11  C    0.237365
    12  C    0.218871
    13  O   -0.395953
    14  O   -0.392086
    15  C    0.410021
 APT charges:
               1
     1  C   -0.101809
     2  C   -0.129794
     3  C   -0.142063
     4  C   -0.070990
     5  C   -0.152769
     6  C   -0.142754
     7  H    0.166891
     8  H    0.168624
     9  H    0.160722
    10  H    0.165724
    11  C    0.076898
    12  C    0.061046
    13  O   -0.395953
    14  O   -0.392086
    15  C    0.123159
    16  H    0.142408
    17  H    0.144454
    18  H    0.157825
    19  H    0.160467
 Sum of APT charges =   0.00000
 APT charges with hydrogens summed into heavy atoms:
               1
     1  C   -0.101809
     2  C    0.035930
     3  C    0.024828
     4  C   -0.070990
     5  C    0.015855
     6  C    0.017968
    11  C    0.237365
    12  C    0.218871
    13  O   -0.395953
    14  O   -0.392086
    15  C    0.410021
 Charge=              0.0000 electrons
 Dipole moment (field-independent basis, Debye):
    X=              0.8267    Y=              1.8827    Z=              1.2185  Tot=              2.3902
 N-N= 3.531211357096D+02 E-N=-5.620912205507D+02  KE=-1.064910210760D+02
  Exact polarizability:       0.000       0.000       0.000       0.000       0.000       0.000
 Approx polarizability:      40.109      -7.675      56.996      -1.090     -15.973      76.725
 Calling FoFJK, ICntrl=    100127 FMM=F ISym2X=0 I1Cent= 0 IOpClX= 0 NMat=1 NMatS=1 NMatT=0.
 -------------------------------------------------------------------
 Center     Atomic                   Forces (Hartrees/Bohr)
 Number     Number              X              Y              Z
 -------------------------------------------------------------------
      1        6           0.035620379    0.064119931    0.024839231
      2        6          -0.027178690    0.055336301   -0.092805820
      3        6           0.001803201   -0.015370196    0.118849550
      4        6           0.024133245   -0.012875835    0.002500289
      5        6           0.005978063   -0.025113540    0.011640350
      6        6           0.001412583   -0.000332118   -0.014732975
      7        1          -0.004614244    0.005061011    0.009258935
      8        1           0.002616673   -0.005039975   -0.004834056
      9        1           0.002925305   -0.006648088   -0.002310058
     10        1          -0.008921176   -0.000872785   -0.007235051
     11        6          -0.004917566   -0.064534433    0.115966114
     12        6          -0.030379988    0.091435902   -0.103349180
     13        8           0.004591515    0.001201333   -0.008352544
     14        8           0.006285258   -0.006563571    0.001201481
     15        6           0.009086883   -0.048997801   -0.035728901
     16        1          -0.006761304   -0.013376568   -0.008900711
     17        1           0.020653337   -0.011828659   -0.006264802
     18        1          -0.017221004    0.007792203   -0.014551632
     19        1          -0.015112472   -0.013393113    0.014809780
 -------------------------------------------------------------------
 Cartesian Forces:  Max     0.118849550 RMS     0.037127954
 FormGI is forming the generalized inverse of G from B-inverse, IUseBI=4.

 GradGradGradGradGradGradGradGradGradGradGradGradGradGradGradGradGradGrad
 Berny optimization.
 Internal  Forces:  Max     0.113343979 RMS     0.024822570
 Search for a local minimum.
 Step number   1 out of a maximum of  114
 All quantities printed in internal units (Hartrees-Bohrs-Radians)
 Mixed Optimization -- RFO/linear search
 Second derivative matrix not updated -- analytic derivatives used.
 ITU=  0
     Eigenvalues ---    0.00640   0.00788   0.01083   0.01507   0.01682
     Eigenvalues ---    0.02545   0.03305   0.03367   0.03514   0.03722
     Eigenvalues ---    0.04010   0.04203   0.04599   0.05117   0.05304
     Eigenvalues ---    0.06164   0.06556   0.06807   0.07605   0.07887
     Eigenvalues ---    0.08079   0.08817   0.09314   0.10354   0.10498
     Eigenvalues ---    0.11245   0.15592   0.17517   0.18264   0.19787
     Eigenvalues ---    0.20150   0.20727   0.21311   0.24406   0.24951
     Eigenvalues ---    0.25676   0.26802   0.27264   0.27616   0.28079
     Eigenvalues ---    0.28590   0.29015   0.29222   0.30182   0.32627
     Eigenvalues ---    0.35610   0.36170   0.41947   0.51134   0.65288
     Eigenvalues ---    0.88069
 RFO step:  Lambda=-1.23689799D-01 EMin= 6.40212937D-03
 Linear search not attempted -- first point.
 Maximum step size (   0.040) exceeded in Quadratic search.
    -- Step size scaled by   0.086
 Iteration  1 RMS(Cart)=  0.00812049 RMS(Int)=  0.00002786
 Iteration  2 RMS(Cart)=  0.00003295 RMS(Int)=  0.00000632
 Iteration  3 RMS(Cart)=  0.00000000 RMS(Int)=  0.00000632
 Variable       Old X    -DE/DX   Delta X   Delta X   Delta X     New X
                                 (Linear)    (Quad)   (Total)
    R1        2.89787  -0.02235   0.00000  -0.00229  -0.00230   2.89558
    R2        2.95032  -0.02466   0.00000  -0.00536  -0.00537   2.94496
    R3        2.87021   0.04523   0.00000   0.00411   0.00411   2.87431
    R4        2.86382  -0.09963   0.00000  -0.02774  -0.02775   2.83607
    R5        2.02201  -0.01086   0.00000  -0.00098  -0.00098   2.02102
    R6        2.89923  -0.02662   0.00000  -0.00259  -0.00258   2.89666
    R7        2.02201  -0.00953   0.00000  -0.00098  -0.00098   2.02103
    R8        2.87403  -0.01277   0.00000  -0.00107  -0.00106   2.87297
    R9        2.95601   0.02683   0.00000  -0.00029  -0.00029   2.95573
   R10        2.58514  -0.01261   0.00000  -0.00164  -0.00164   2.58350
   R11        2.02201  -0.00483   0.00000  -0.00081  -0.00081   2.02120
   R12        2.02201  -0.00407   0.00000  -0.00080  -0.00080   2.02120
   R13        2.66537   0.11334   0.00000   0.01544   0.01544   2.68080
   R14        2.69426   0.04798   0.00000   0.00208   0.00208   2.69634
   R15        2.02201   0.02271   0.00000   0.00309   0.00309   2.02510
   R16        2.69759   0.04631   0.00000   0.00175   0.00175   2.69934
   R17        2.02201   0.02130   0.00000   0.00295   0.00295   2.02496
   R18        2.71996   0.02843   0.00000   0.00199   0.00199   2.72195
   R19        2.71818   0.02337   0.00000   0.00223   0.00223   2.72041
   R20        2.02201   0.01265   0.00000   0.00225   0.00225   2.02426
   R21        2.02201   0.00737   0.00000   0.00336   0.00336   2.02537
    A1        2.00441  -0.01682   0.00000   0.00147   0.00147   2.00588
    A2        2.17753   0.03369   0.00000  -0.00004  -0.00003   2.17750
    A3        2.06929  -0.01620   0.00000  -0.00132  -0.00133   2.06796
    A4        1.61219   0.02130   0.00000   0.00452   0.00451   1.61670
    A5        2.31971  -0.01205   0.00000  -0.00456  -0.00456   2.31516
    A6        2.34654  -0.01052   0.00000  -0.00022  -0.00022   2.34632
    A7        1.61291   0.01570   0.00000   0.00440   0.00440   1.61732
    A8        2.34620  -0.00568   0.00000   0.00004   0.00004   2.34623
    A9        2.31946  -0.01008   0.00000  -0.00453  -0.00453   2.31493
   A10        2.16910  -0.03745   0.00000  -0.00571  -0.00570   2.16339
   A11        2.00871   0.05688   0.00000   0.00722   0.00721   2.01592
   A12        2.07359  -0.01881   0.00000  -0.00154  -0.00154   2.07205
   A13        1.64098   0.00965   0.00000   0.00140   0.00140   1.64238
   A14        2.32111  -0.01062   0.00000  -0.00293  -0.00293   2.31818
   A15        2.32107   0.00106   0.00000   0.00155   0.00155   2.32262
   A16        1.69562  -0.00496   0.00000  -0.00228  -0.00228   1.69334
   A17        2.29378  -0.00402   0.00000  -0.00120  -0.00120   2.29258
   A18        2.29378   0.00893   0.00000   0.00347   0.00347   2.29724
   A19        1.63381  -0.01716   0.00000  -0.00189  -0.00189   1.63192
   A20        2.00049   0.04801   0.00000   0.00455   0.00455   2.00504
   A21        1.98116  -0.01204   0.00000  -0.00009  -0.00009   1.98107
   A22        1.88528  -0.02688   0.00000  -0.00430  -0.00430   1.88098
   A23        2.04012   0.02396   0.00000   0.00417   0.00417   2.04429
   A24        1.91107  -0.01305   0.00000  -0.00210  -0.00209   1.90898
   A25        1.67514  -0.02487   0.00000  -0.00519  -0.00519   1.66995
   A26        1.98358   0.04715   0.00000   0.00481   0.00480   1.98838
   A27        1.97406  -0.00841   0.00000   0.00138   0.00139   1.97545
   A28        1.86543  -0.02190   0.00000  -0.00232  -0.00232   1.86311
   A29        2.03698   0.02243   0.00000   0.00394   0.00394   2.04092
   A30        1.91793  -0.01246   0.00000  -0.00253  -0.00253   1.91540
   A31        1.70667   0.05074   0.00000   0.00713   0.00712   1.71379
   A32        1.70052   0.05269   0.00000   0.00789   0.00788   1.70839
   A33        1.81331  -0.01469   0.00000  -0.00224  -0.00224   1.81106
   A34        1.95262   0.01085   0.00000  -0.00050  -0.00050   1.95212
   A35        1.92347   0.00235   0.00000   0.00016   0.00016   1.92363
   A36        1.95206   0.01202   0.00000  -0.00037  -0.00037   1.95170
   A37        1.92402  -0.00484   0.00000   0.00053   0.00052   1.92454
   A38        1.89762  -0.00585   0.00000   0.00224   0.00224   1.89986
    D1       -1.56140   0.01440   0.00000   0.00343   0.00342  -1.55798
    D2        1.48409   0.00155   0.00000   0.00092   0.00093   1.48502
    D3        1.30617   0.01387   0.00000   0.00371   0.00369   1.30986
    D4       -1.93152   0.00102   0.00000   0.00120   0.00120  -1.93032
    D5        1.41786  -0.01514   0.00000  -0.00313  -0.00312   1.41474
    D6       -1.72003  -0.00145   0.00000  -0.00080  -0.00080  -1.72083
    D7       -1.46784  -0.02307   0.00000  -0.00356  -0.00356  -1.47139
    D8        1.67745  -0.00939   0.00000  -0.00123  -0.00123   1.67622
    D9       -1.48984   0.01707   0.00000   0.00342   0.00342  -1.48642
   D10        0.45980  -0.01013   0.00000  -0.00128  -0.00129   0.45851
   D11        2.67375   0.00320   0.00000  -0.00028  -0.00028   2.67347
   D12        1.36839   0.01683   0.00000   0.00411   0.00411   1.37250
   D13       -2.96516  -0.01038   0.00000  -0.00059  -0.00060  -2.96576
   D14       -0.75121   0.00296   0.00000   0.00041   0.00041  -0.75080
   D15        0.19252  -0.01577   0.00000  -0.00568  -0.00568   0.18684
   D16       -2.85175  -0.01485   0.00000  -0.00453  -0.00452  -2.85627
   D17       -2.85047  -0.00249   0.00000  -0.00271  -0.00271  -2.85319
   D18        0.38844  -0.00158   0.00000  -0.00156  -0.00155   0.38689
   D19        1.29155  -0.00227   0.00000   0.00064   0.00065   1.29220
   D20       -1.57759  -0.00330   0.00000   0.00084   0.00086  -1.57674
   D21       -1.94491  -0.00280   0.00000  -0.00008  -0.00008  -1.94498
   D22        1.46913  -0.00383   0.00000   0.00012   0.00013   1.46926
   D23       -1.48618   0.01719   0.00000   0.00457   0.00457  -1.48161
   D24        1.66167   0.00248   0.00000   0.00199   0.00199   1.66367
   D25        1.37358   0.02897   0.00000   0.00559   0.00559   1.37917
   D26       -1.76175   0.01427   0.00000   0.00301   0.00301  -1.75874
   D27        1.42864  -0.01062   0.00000  -0.00237  -0.00236   1.42628
   D28       -0.51537   0.01340   0.00000   0.00154   0.00156  -0.51381
   D29       -2.71802  -0.00222   0.00000  -0.00022  -0.00022  -2.71824
   D30       -1.45639  -0.00761   0.00000  -0.00138  -0.00138  -1.45777
   D31        2.88278   0.01641   0.00000   0.00253   0.00254   2.88532
   D32        0.68013   0.00079   0.00000   0.00076   0.00076   0.68090
   D33        0.02346   0.00076   0.00000   0.00038   0.00039   0.02386
   D34       -3.12182  -0.01296   0.00000  -0.00196  -0.00196  -3.12379
   D35       -3.12439   0.01540   0.00000   0.00294   0.00295  -3.12144
   D36        0.01351   0.00167   0.00000   0.00060   0.00060   0.01411
   D37        0.01740   0.00106   0.00000   0.00030   0.00031   0.01771
   D38        2.05866   0.03624   0.00000   0.00282   0.00284   2.06149
   D39       -2.07054   0.01784   0.00000   0.00036   0.00037  -2.07017
   D40       -2.03080  -0.03743   0.00000  -0.00282  -0.00283  -2.03362
   D41        0.01046  -0.00226   0.00000  -0.00030  -0.00030   0.01016
   D42        2.16445  -0.02066   0.00000  -0.00276  -0.00276   2.16168
   D43        2.08907  -0.01521   0.00000   0.00050   0.00050   2.08957
   D44       -2.15286   0.01996   0.00000   0.00302   0.00302  -2.14983
   D45        0.00113   0.00156   0.00000   0.00056   0.00056   0.00169
   D46       -1.29684   0.00035   0.00000   0.00041   0.00042  -1.29642
   D47        0.49772  -0.01357   0.00000  -0.00218  -0.00219   0.49553
   D48        2.73687  -0.01128   0.00000  -0.00139  -0.00139   2.73549
   D49        1.31137  -0.00311   0.00000  -0.00269  -0.00270   1.30867
   D50       -0.51389   0.01753   0.00000   0.00257   0.00257  -0.51131
   D51       -2.73987   0.01277   0.00000   0.00090   0.00090  -2.73896
   D52        0.85332  -0.03482   0.00000  -0.00562  -0.00563   0.84769
   D53        2.96208  -0.02371   0.00000  -0.00771  -0.00771   2.95437
   D54       -1.20764  -0.02222   0.00000  -0.00508  -0.00509  -1.21273
   D55       -0.84258   0.03278   0.00000   0.00501   0.00501  -0.83757
   D56       -2.95171   0.02245   0.00000   0.00718   0.00718  -2.94453
   D57        1.21800   0.02514   0.00000   0.00422   0.00422   1.22222
         Item               Value     Threshold  Converged?
 Maximum Force            0.113344     0.000015     NO 
 RMS     Force            0.024823     0.000010     NO 
 Maximum Displacement     0.029872     0.000060     NO 
 RMS     Displacement     0.008122     0.000040     NO 
 Predicted change in Energy=-1.032941D-02
 GradGradGradGradGradGradGradGradGradGradGradGradGradGradGradGradGradGrad

                          Input orientation:                          
 ---------------------------------------------------------------------
 Center     Atomic      Atomic             Coordinates (Angstroms)
 Number     Number       Type             X           Y           Z
 ---------------------------------------------------------------------
      1          6           0       -0.595119    0.614140    0.516498
      2          6           0        0.918191    0.618943    0.276225
      3          6           0        0.773542    1.285325   -1.060699
      4          6           0       -0.708446    1.597741   -0.824651
      5          6           0       -1.208174    2.683333    0.115084
      6          6           0       -1.151862    1.886055    1.224236
      7          1           0        1.414797    1.412522   -1.907108
      8          1           0       -1.500753    3.700458   -0.039327
      9          1           0       -1.401820    2.073307    2.247196
     10          1           0        1.750020    0.342743    0.889054
     11          6           0       -1.578115   -0.326868   -0.163009
     12          6           0       -1.713202    0.500544   -1.307396
     13          8           0       -1.247828   -0.260627   -2.422946
     14          8           0       -1.022679   -1.570581   -0.587922
     15          6           0       -0.290394   -1.081060   -1.726571
     16          1           0        0.071301   -1.880434   -2.341088
     17          1           0        0.542006   -0.487230   -1.405349
     18          1           0       -2.691230    0.886076   -1.514934
     19          1           0       -2.462168   -0.510935    0.414026
 ---------------------------------------------------------------------
                    Distance matrix (angstroms):
                    1          2          3          4          5
     1  C    0.000000
     2  C    1.532273   0.000000
     3  C    2.193461   1.500785   0.000000
     4  C    1.667032   2.194521   1.532844   0.000000
     5  C    2.195115   2.968013   2.695197   1.520309   0.000000
     6  C    1.558405   2.605651   3.047784   2.116054   1.367129
     7  H    3.248237   2.375569   1.069484   2.390435   3.547421
     8  H    3.264119   3.930215   3.471092   2.380315   1.069573
     9  H    2.403175   3.373774   4.036742   3.184835   2.226103
    10  H    2.390006   1.069479   2.375607   3.248979   3.850754
    11  C    1.521022   2.705370   2.989198   2.213191   3.045571
    12  C    2.142336   3.073451   2.619281   1.564103   2.653878
    13  O    3.135535   3.570827   2.886455   2.509784   3.887168
    14  O    2.485067   3.050859   3.406777   3.192655   4.315601
    15  C    2.828059   2.891691   2.678641   2.857306   4.290066
    16  H    3.851339   3.716778   3.486340   3.873666   5.338334
    17  H    2.489893   2.047639   1.820534   2.499589   3.927762
    18  H    2.931612   4.038259   3.517154   2.216842   2.843686
    19  H    2.182239   3.566852   3.983865   3.009381   3.444592
                    6          7          8          9         10
     6  C    0.000000
     7  H    4.076431   0.000000
     8  H    2.238386   4.150143   0.000000
     9  H    1.069574   5.062431   2.808131   0.000000
    10  H    3.303798   3.012528   4.764836   3.843631   0.000000
    11  C    2.646351   3.876194   4.029967   3.406025   3.554110
    12  C    2.940052   3.312965   3.448562   3.899444   4.104047
    13  O    4.233131   3.186705   4.629882   5.223140   4.507826
    14  O    3.904989   4.071909   5.321030   4.632447   3.678333
    15  C    4.272372   3.026255   5.212932   5.193854   3.609986
    16  H    5.328612   3.582859   6.238254   6.233338   4.265493
    17  H    3.926371   2.150019   4.855471   4.865788   2.722580
    18  H    3.297373   4.158173   3.393434   4.150388   5.079279
    19  H    2.849369   4.911029   4.343463   3.341130   4.323996
                   11         12         13         14         15
    11  C    0.000000
    12  C    1.418619   0.000000
    13  O    2.284905   1.428429   0.000000
    14  O    1.426843   2.298700   2.265830   0.000000
    15  C    2.161424   2.168308   1.440392   1.439581   0.000000
    16  H    3.142955   3.149925   2.090592   2.089592   1.071193
    17  H    2.462526   2.463991   2.071318   2.071250   1.071777
    18  H    2.130249   1.071563   2.054951   3.111042   3.111017
    19  H    1.071635   2.132448   3.096076   2.049116   3.102225
                   16         17         18         19
    16  H    0.000000
    17  H    1.743040   0.000000
    18  H    3.995959   3.514512   0.000000
    19  H    3.985555   3.512228   2.392697   0.000000
 Symmetry turned off by external request.
 Stoichiometry    C9H8O2
 Framework group  C1[X(C9H8O2)]
 Deg. of freedom    51
 Full point group                 C1      NOp   1
 Rotational constants (GHZ):           2.3102841           1.2366119           1.2126575
 Standard basis: VSTO-6G (5D, 7F)
    52 basis functions,   312 primitive gaussians,    52 cartesian basis functions
    28 alpha electrons       28 beta electrons
       nuclear repulsion energy       352.9121202235 Hartrees.
 Integral buffers will be    131072 words long.
 Regular integral format.
 Two-electron integral symmetry is turned off.
 Do NDO integrals.
 One-electron integrals computed using PRISM.
 NBasis=    52 RedAO= F EigKep=  0.00D+00  NBF=    52
 NBsUse=    52 1.00D-04 EigRej=  0.00D+00 NBFU=    52
 Initial guess from the checkpoint file:  "C:\Users\al6323\OneDrive - Imperial College London\Desktop\TSR20251113\Exercise 2\Product_PM6_exo.chk"
 B after Tr=     0.000220    0.001519    0.001078
         Rot=    1.000000    0.000038    0.000064   -0.000148 Ang=   0.02 deg.
 Keep J ints in memory in canonical form, NReq=867036.
 Overlap will be assumed to be unity.
 Requested convergence on RMS density matrix=1.00D-08 within  32 cycles.
 Requested convergence on MAX density matrix=1.00D-06.
 Requested convergence on             energy=1.00D-06.
 No special actions if energy rises.
 SCF Done:  E(RPM6) =  0.172671692991     A.U. after   12 cycles
            NFock= 11  Conv=0.55D-08     -V/T= 1.0016
 QCSCF skips out because SCF is already converged.
 Calling FoFJK, ICntrl=      2127 FMM=F ISym2X=0 I1Cent= 0 IOpClX= 0 NMat=1 NMatS=1 NMatT=0.
 -------------------------------------------------------------------
 Center     Atomic                   Forces (Hartrees/Bohr)
 Number     Number              X              Y              Z
 -------------------------------------------------------------------
      1        6           0.032983888    0.060321041    0.023424453
      2        6          -0.025293994    0.052370349   -0.088084330
      3        6           0.001643084   -0.015618299    0.112161332
      4        6           0.022382411   -0.012637726    0.001792020
      5        6           0.005545667   -0.023367603    0.011078340
      6        6           0.001372517   -0.000233166   -0.013747506
      7        1          -0.004355451    0.005145276    0.008608432
      8        1           0.002423776   -0.004759548   -0.004704593
      9        1           0.002765118   -0.006381723   -0.002149761
     10        1          -0.008388144   -0.001308327   -0.006707678
     11        6          -0.004445949   -0.060254956    0.108453946
     12        6          -0.028294140    0.085423395   -0.096703262
     13        8           0.004941617    0.001578074   -0.007137454
     14        8           0.006513297   -0.005269700    0.001276741
     15        6           0.008119449   -0.045625193   -0.033174929
     16        1          -0.007150222   -0.012706689   -0.008322839
     17        1           0.019277344   -0.010961127   -0.005916922
     18        1          -0.016009132    0.007077082   -0.013836251
     19        1          -0.014031136   -0.012791162    0.013690259
 -------------------------------------------------------------------
 Cartesian Forces:  Max     0.112161332 RMS     0.034856119

 GradGradGradGradGradGradGradGradGradGradGradGradGradGradGradGradGradGrad
 Berny optimization.
 Using GEDIIS/GDIIS optimizer.
 FormGI is forming the generalized inverse of G from B-inverse, IUseBI=4.
 Internal  Forces:  Max     0.105663628 RMS     0.023152751
 Search for a local minimum.
 Step number   2 out of a maximum of  114
 All quantities printed in internal units (Hartrees-Bohrs-Radians)
 Mixed Optimization -- RFO/linear search
 Update second derivatives using D2CorX and points    1    2
 DE= -1.03D-02 DEPred=-1.03D-02 R= 1.00D+00
 TightC=F SS=  1.41D+00  RLast= 4.59D-02 DXNew= 6.7272D-02 1.3758D-01
 Trust test= 1.00D+00 RLast= 4.59D-02 DXMaxT set to 6.73D-02
 ITU=  1  0
 Use linear search instead of GDIIS.
 Linear search step of   0.080 exceeds DXMaxT=   0.067 but not scaled.
 Quartic linear search produced a step of  2.00000.
 Iteration  1 RMS(Cart)=  0.01622235 RMS(Int)=  0.00011459
 Iteration  2 RMS(Cart)=  0.00013110 RMS(Int)=  0.00003800
 Iteration  3 RMS(Cart)=  0.00000001 RMS(Int)=  0.00003800
 Variable       Old X    -DE/DX   Delta X   Delta X   Delta X     New X
                                 (Linear)    (Quad)   (Total)
    R1        2.89558  -0.02075  -0.00459   0.00000  -0.00463   2.89095
    R2        2.94496  -0.02320  -0.01073   0.00000  -0.01076   2.93420
    R3        2.87431   0.04186   0.00822   0.00000   0.00821   2.88252
    R4        2.83607  -0.09423  -0.05549   0.00000  -0.05553   2.78054
    R5        2.02102  -0.01003  -0.00197   0.00000  -0.00197   2.01905
    R6        2.89666  -0.02457  -0.00516   0.00000  -0.00512   2.89154
    R7        2.02103  -0.00881  -0.00195   0.00000  -0.00195   2.01908
    R8        2.87297  -0.01176  -0.00213   0.00000  -0.00210   2.87087
    R9        2.95573   0.02458  -0.00058   0.00000  -0.00056   2.95516
   R10        2.58350  -0.01163  -0.00327   0.00000  -0.00326   2.58024
   R11        2.02120  -0.00451  -0.00161   0.00000  -0.00161   2.01959
   R12        2.02120  -0.00382  -0.00161   0.00000  -0.00161   2.01959
   R13        2.68080   0.10566   0.03087   0.00000   0.03085   2.71165
   R14        2.69634   0.04414   0.00416   0.00000   0.00417   2.70051
   R15        2.02510   0.02114   0.00618   0.00000   0.00618   2.03127
   R16        2.69934   0.04254   0.00350   0.00000   0.00347   2.70281
   R17        2.02496   0.01984   0.00591   0.00000   0.00591   2.03087
   R18        2.72195   0.02630   0.00398   0.00000   0.00399   2.72594
   R19        2.72041   0.02171   0.00446   0.00000   0.00450   2.72492
   R20        2.02426   0.01184   0.00451   0.00000   0.00451   2.02877
   R21        2.02537   0.00713   0.00672   0.00000   0.00672   2.03208
    A1        2.00588  -0.01521   0.00293   0.00000   0.00292   2.00879
    A2        2.17750   0.03093  -0.00006   0.00000  -0.00001   2.17748
    A3        2.06796  -0.01510  -0.00265   0.00000  -0.00269   2.06527
    A4        1.61670   0.01990   0.00902   0.00000   0.00894   1.62565
    A5        2.31516  -0.01153  -0.00912   0.00000  -0.00909   2.30607
    A6        2.34632  -0.00958  -0.00044   0.00000  -0.00041   2.34591
    A7        1.61732   0.01495   0.00881   0.00000   0.00883   1.62614
    A8        2.34623  -0.00523   0.00007   0.00000   0.00005   2.34628
    A9        2.31493  -0.00980  -0.00906   0.00000  -0.00907   2.30586
   A10        2.16339  -0.03489  -0.01141   0.00000  -0.01136   2.15203
   A11        2.01592   0.05293   0.01442   0.00000   0.01437   2.03030
   A12        2.07205  -0.01746  -0.00308   0.00000  -0.00307   2.06898
   A13        1.64238   0.00899   0.00280   0.00000   0.00280   1.64518
   A14        2.31818  -0.01009  -0.00587   0.00000  -0.00587   2.31231
   A15        2.32262   0.00115   0.00309   0.00000   0.00308   2.32570
   A16        1.69334  -0.00486  -0.00457   0.00000  -0.00462   1.68872
   A17        2.29258  -0.00381  -0.00239   0.00000  -0.00238   2.29021
   A18        2.29724   0.00860   0.00694   0.00000   0.00696   2.30420
   A19        1.63192  -0.01594  -0.00379   0.00000  -0.00380   1.62812
   A20        2.00504   0.04456   0.00911   0.00000   0.00914   2.01418
   A21        1.98107  -0.01104  -0.00018   0.00000  -0.00020   1.98087
   A22        1.88098  -0.02503  -0.00860   0.00000  -0.00858   1.87240
   A23        2.04429   0.02237   0.00834   0.00000   0.00834   2.05263
   A24        1.90898  -0.01216  -0.00418   0.00000  -0.00416   1.90482
   A25        1.66995  -0.02331  -0.01037   0.00000  -0.01036   1.65960
   A26        1.98838   0.04368   0.00960   0.00000   0.00955   1.99793
   A27        1.97545  -0.00748   0.00278   0.00000   0.00283   1.97829
   A28        1.86311  -0.02021  -0.00463   0.00000  -0.00458   1.85853
   A29        2.04092   0.02091   0.00788   0.00000   0.00787   2.04879
   A30        1.91540  -0.01171  -0.00507   0.00000  -0.00508   1.91032
   A31        1.71379   0.04707   0.01423   0.00000   0.01414   1.72793
   A32        1.70839   0.04902   0.01576   0.00000   0.01571   1.72410
   A33        1.81106  -0.01366  -0.00448   0.00000  -0.00448   1.80659
   A34        1.95212   0.00990  -0.00101   0.00000  -0.00101   1.95111
   A35        1.92363   0.00212   0.00032   0.00000   0.00031   1.92393
   A36        1.95170   0.01099  -0.00074   0.00000  -0.00074   1.95096
   A37        1.92454  -0.00444   0.00105   0.00000   0.00103   1.92557
   A38        1.89986  -0.00509   0.00449   0.00000   0.00449   1.90435
    D1       -1.55798   0.01344   0.00685   0.00000   0.00680  -1.55118
    D2        1.48502   0.00152   0.00186   0.00000   0.00188   1.48691
    D3        1.30986   0.01294   0.00739   0.00000   0.00731   1.31718
    D4       -1.93032   0.00101   0.00240   0.00000   0.00240  -1.92793
    D5        1.41474  -0.01416  -0.00625   0.00000  -0.00623   1.40850
    D6       -1.72083  -0.00142  -0.00159   0.00000  -0.00159  -1.72242
    D7       -1.47139  -0.02143  -0.00711   0.00000  -0.00709  -1.47848
    D8        1.67622  -0.00870  -0.00246   0.00000  -0.00245   1.67378
    D9       -1.48642   0.01596   0.00684   0.00000   0.00684  -1.47958
   D10        0.45851  -0.00960  -0.00257   0.00000  -0.00262   0.45589
   D11        2.67347   0.00291  -0.00055   0.00000  -0.00053   2.67295
   D12        1.37250   0.01577   0.00821   0.00000   0.00819   1.38068
   D13       -2.96576  -0.00979  -0.00120   0.00000  -0.00128  -2.96704
   D14       -0.75080   0.00271   0.00082   0.00000   0.00082  -0.74998
   D15        0.18684  -0.01512  -0.01137   0.00000  -0.01136   0.17548
   D16       -2.85627  -0.01402  -0.00904   0.00000  -0.00898  -2.86525
   D17       -2.85319  -0.00271  -0.00543   0.00000  -0.00544  -2.85863
   D18        0.38689  -0.00161  -0.00310   0.00000  -0.00306   0.38383
   D19        1.29220  -0.00183   0.00131   0.00000   0.00138   1.29358
   D20       -1.57674  -0.00269   0.00171   0.00000   0.00181  -1.57493
   D21       -1.94498  -0.00252  -0.00015   0.00000  -0.00012  -1.94510
   D22        1.46926  -0.00338   0.00025   0.00000   0.00032   1.46958
   D23       -1.48161   0.01620   0.00914   0.00000   0.00913  -1.47248
   D24        1.66367   0.00253   0.00399   0.00000   0.00402   1.66769
   D25        1.37917   0.02713   0.01118   0.00000   0.01117   1.39034
   D26       -1.75874   0.01345   0.00602   0.00000   0.00607  -1.75267
   D27        1.42628  -0.00990  -0.00472   0.00000  -0.00470   1.42159
   D28       -0.51381   0.01274   0.00312   0.00000   0.00324  -0.51057
   D29       -2.71824  -0.00197  -0.00044   0.00000  -0.00042  -2.71866
   D30       -1.45777  -0.00704  -0.00275   0.00000  -0.00273  -1.46050
   D31        2.88532   0.01560   0.00509   0.00000   0.00520   2.89052
   D32        0.68090   0.00089   0.00153   0.00000   0.00154   0.68244
   D33        0.02386   0.00078   0.00078   0.00000   0.00082   0.02468
   D34       -3.12379  -0.01207  -0.00392   0.00000  -0.00393  -3.12771
   D35       -3.12144   0.01448   0.00590   0.00000   0.00596  -3.11547
   D36        0.01411   0.00162   0.00120   0.00000   0.00121   0.01532
   D37        0.01771   0.00109   0.00061   0.00000   0.00067   0.01838
   D38        2.06149   0.03372   0.00567   0.00000   0.00577   2.06726
   D39       -2.07017   0.01651   0.00074   0.00000   0.00081  -2.06936
   D40       -2.03362  -0.03469  -0.00565   0.00000  -0.00567  -2.03930
   D41        0.01016  -0.00206  -0.00060   0.00000  -0.00057   0.00959
   D42        2.16168  -0.01928  -0.00552   0.00000  -0.00554   2.15615
   D43        2.08957  -0.01391   0.00099   0.00000   0.00100   2.09056
   D44       -2.14983   0.01872   0.00605   0.00000   0.00609  -2.14374
   D45        0.00169   0.00151   0.00112   0.00000   0.00113   0.00282
   D46       -1.29642   0.00050   0.00083   0.00000   0.00089  -1.29553
   D47        0.49553  -0.01279  -0.00438   0.00000  -0.00443   0.49110
   D48        2.73549  -0.01045  -0.00277   0.00000  -0.00273   2.73275
   D49        1.30867  -0.00321  -0.00540   0.00000  -0.00543   1.30324
   D50       -0.51131   0.01644   0.00515   0.00000   0.00519  -0.50613
   D51       -2.73896   0.01186   0.00181   0.00000   0.00182  -2.73714
   D52        0.84769  -0.03264  -0.01126   0.00000  -0.01129   0.83640
   D53        2.95437  -0.02266  -0.01542   0.00000  -0.01542   2.93895
   D54       -1.21273  -0.02098  -0.01017   0.00000  -0.01019  -1.22291
   D55       -0.83757   0.03068   0.01002   0.00000   0.01005  -0.82751
   D56       -2.94453   0.02143   0.01436   0.00000   0.01436  -2.93017
   D57        1.22222   0.02356   0.00843   0.00000   0.00844   1.23066
         Item               Value     Threshold  Converged?
 Maximum Force            0.105664     0.000015     NO 
 RMS     Force            0.023153     0.000010     NO 
 Maximum Displacement     0.058934     0.000060     NO 
 RMS     Displacement     0.016228     0.000040     NO 
 Predicted change in Energy=-1.866955D-02
 GradGradGradGradGradGradGradGradGradGradGradGradGradGradGradGradGradGrad

                          Input orientation:                          
 ---------------------------------------------------------------------
 Center     Atomic      Atomic             Coordinates (Angstroms)
 Number     Number       Type             X           Y           Z
 ---------------------------------------------------------------------
      1          6           0       -0.590940    0.624320    0.520027
      2          6           0        0.918532    0.637609    0.271668
      3          6           0        0.779297    1.297349   -1.036144
      4          6           0       -0.705700    1.597617   -0.821806
      5          6           0       -1.210812    2.680313    0.116596
      6          6           0       -1.153218    1.887405    1.226691
      7          1           0        1.424102    1.435003   -1.876896
      8          1           0       -1.502615    3.695865   -0.043617
      9          1           0       -1.400587    2.070384    2.250163
     10          1           0        1.748420    0.363459    0.886230
     11          6           0       -1.574941   -0.326308   -0.154351
     12          6           0       -1.712027    0.506783   -1.314624
     13          8           0       -1.250619   -0.266153   -2.426081
     14          8           0       -1.024635   -1.571629   -0.588533
     15          6           0       -0.294943   -1.100544   -1.739573
     16          1           0        0.041975   -1.911621   -2.356998
     17          1           0        0.553878   -0.517103   -1.430647
     18          1           0       -2.690071    0.896174   -1.530862
     19          1           0       -2.457030   -0.515471    0.430076
 ---------------------------------------------------------------------
                    Distance matrix (angstroms):
                    1          2          3          4          5
     1  C    0.000000
     2  C    1.529825   0.000000
     3  C    2.179950   1.471400   0.000000
     4  C    1.661623   2.180694   1.530136   0.000000
     5  C    2.184972   2.954792   2.683642   1.519200   0.000000
     6  C    1.552712   2.601193   3.033678   2.116740   1.365405
     7  H    3.234632   2.346864   1.068451   2.382376   3.530947
     8  H    3.253188   3.913347   3.456170   2.375562   1.068720
     9  H    2.395829   3.368322   4.018618   3.184865   2.227136
    10  H    2.382175   1.068438   2.346673   3.234692   3.836301
    11  C    1.525364   2.707034   2.992700   2.214173   3.040686
    12  C    2.153275   3.074618   2.628543   1.563804   2.650253
    13  O    3.147645   3.577688   2.914964   2.518784   3.892101
    14  O    2.497837   3.065383   3.418414   3.193784   4.314033
    15  C    2.858069   2.922120   2.720054   2.879425   4.310343
    16  H    3.887010   3.765210   3.547644   3.902638   5.364140
    17  H    2.533492   2.089069   1.870476   2.535599   3.966303
    18  H    2.947270   4.042027   3.527350   2.220926   2.843498
    19  H    2.188494   3.570588   3.988724   3.016538   3.444468
                    6          7          8          9         10
     6  C    0.000000
     7  H    4.059495   0.000000
     8  H    2.237473   4.127722   0.000000
     9  H    1.068723   5.041349   2.813187   0.000000
    10  H    3.295122   2.981318   4.747502   3.832773   0.000000
    11  C    2.643038   3.881190   4.024347   3.399443   3.550114
    12  C    2.945618   3.318591   3.439412   3.905067   4.103534
    13  O    4.241466   3.217090   4.630035   5.229641   4.512432
    14  O    3.908515   4.086077   5.317132   4.632903   3.689081
    15  C    4.296882   3.066427   5.228793   5.214904   3.635035
    16  H    5.357603   3.652487   6.259504   6.258057   4.313521
    17  H    3.969544   2.183379   4.888979   4.905444   2.751406
    18  H    3.308860   4.163712   3.385295   4.163855   5.081960
    19  H    2.847513   4.918298   4.344035   3.333981   4.320463
                   11         12         13         14         15
    11  C    0.000000
    12  C    1.434944   0.000000
    13  O    2.295552   1.430267   0.000000
    14  O    1.429047   2.306406   2.265374   0.000000
    15  C    2.179625   2.184538   1.442504   1.441965   0.000000
    16  H    3.159001   3.164134   2.093594   2.093016   1.073580
    17  H    2.489419   2.489202   2.076072   2.076748   1.075331
    18  H    2.152384   1.074688   2.055344   3.122773   3.125232
    19  H    1.074904   2.154996   3.110501   2.050558   3.118381
                   16         17         18         19
    16  H    0.000000
    17  H    1.750672   0.000000
    18  H    4.003784   3.539859   0.000000
    19  H    3.995252   3.539471   2.427411   0.000000
 Symmetry turned off by external request.
 Stoichiometry    C9H8O2
 Framework group  C1[X(C9H8O2)]
 Deg. of freedom    51
 Full point group                 C1      NOp   1
 Rotational constants (GHZ):           2.3128092           1.2301125           1.2051433
 Standard basis: VSTO-6G (5D, 7F)
    52 basis functions,   312 primitive gaussians,    52 cartesian basis functions
    28 alpha electrons       28 beta electrons
       nuclear repulsion energy       352.5071061433 Hartrees.
 Integral buffers will be    131072 words long.
 Regular integral format.
 Two-electron integral symmetry is turned off.
 Do NDO integrals.
 One-electron integrals computed using PRISM.
 NBasis=    52 RedAO= F EigKep=  0.00D+00  NBF=    52
 NBsUse=    52 1.00D-04 EigRej=  0.00D+00 NBFU=    52
 Initial guess from the checkpoint file:  "C:\Users\al6323\OneDrive - Imperial College London\Desktop\TSR20251113\Exercise 2\Product_PM6_exo.chk"
 B after Tr=     0.000515    0.003045    0.002126
         Rot=    1.000000    0.000071    0.000133   -0.000299 Ang=   0.04 deg.
 Keep J ints in memory in canonical form, NReq=867036.
 Overlap will be assumed to be unity.
 Requested convergence on RMS density matrix=1.00D-08 within  32 cycles.
 Requested convergence on MAX density matrix=1.00D-06.
 Requested convergence on             energy=1.00D-06.
 No special actions if energy rises.
 SCF Done:  E(RPM6) =  0.154022613857     A.U. after   14 cycles
            NFock= 13  Conv=0.44D-08     -V/T= 1.0014
 QCSCF skips out because SCF is already converged.
 Calling FoFJK, ICntrl=      2127 FMM=F ISym2X=0 I1Cent= 0 IOpClX= 0 NMat=1 NMatS=1 NMatT=0.
 -------------------------------------------------------------------
 Center     Atomic                   Forces (Hartrees/Bohr)
 Number     Number              X              Y              Z
 -------------------------------------------------------------------
      1        6           0.027710608    0.052650049    0.020831088
      2        6          -0.021209056    0.045420053   -0.076463879
      3        6           0.001384818   -0.014690255    0.096732645
      4        6           0.018729558   -0.012022630    0.000300539
      5        6           0.004648938   -0.019858989    0.009928667
      6        6           0.001258278    0.000016859   -0.011730033
      7        1          -0.003789770    0.005376217    0.007226264
      8        1           0.002034654   -0.004194788   -0.004450747
      9        1           0.002440766   -0.005848967   -0.001822409
     10        1          -0.007280331   -0.002198179   -0.005589411
     11        6          -0.003544308   -0.052366431    0.094223444
     12        6          -0.024325836    0.074077047   -0.084192137
     13        8           0.005623306    0.002303820   -0.004832544
     14        8           0.006979277   -0.002825833    0.001429800
     15        6           0.006182804   -0.039166453   -0.028271649
     16        1          -0.007858689   -0.011348792   -0.007167253
     17        1           0.016593202   -0.009398905   -0.005222699
     18        1          -0.013646900    0.005690932   -0.012421044
     19        1          -0.011931318   -0.011614754    0.011491356
 -------------------------------------------------------------------
 Cartesian Forces:  Max     0.096732645 RMS     0.030213579

 GradGradGradGradGradGradGradGradGradGradGradGradGradGradGradGradGradGrad
 Berny optimization.
 Using GEDIIS/GDIIS optimizer.
 FormGI is forming the generalized inverse of G from B-inverse, IUseBI=4.
 Internal  Forces:  Max     0.091420354 RMS     0.019871346
 Search for a local minimum.
 Step number   3 out of a maximum of  114
 All quantities printed in internal units (Hartrees-Bohrs-Radians)
 Mixed Optimization -- RFO/linear search
 Update second derivatives using D2CorX and points    1    2    3
 ITU=  0  1  0
 Use linear search instead of GDIIS.
 Linear search step of   0.160 exceeds DXMaxT=   0.067 scaled by   0.841
 Quartic linear search produced a step of  1.68275.
 Iteration  1 RMS(Cart)=  0.02723779 RMS(Int)=  0.00032478
 Iteration  2 RMS(Cart)=  0.00036764 RMS(Int)=  0.00011484
 Iteration  3 RMS(Cart)=  0.00000006 RMS(Int)=  0.00011484
 Variable       Old X    -DE/DX   Delta X   Delta X   Delta X     New X
                                 (Linear)    (Quad)   (Total)
    R1        2.89095  -0.01741  -0.00778   0.00000  -0.00789   2.88306
    R2        2.93420  -0.02019  -0.01810   0.00000  -0.01818   2.91602
    R3        2.88252   0.03548   0.01381   0.00000   0.01377   2.89629
    R4        2.78054  -0.08115  -0.09344   0.00000  -0.09356   2.68698
    R5        2.01905  -0.00831  -0.00331   0.00000  -0.00331   2.01574
    R6        2.89154  -0.02041  -0.00861   0.00000  -0.00849   2.88304
    R7        2.01908  -0.00728  -0.00328   0.00000  -0.00328   2.01580
    R8        2.87087  -0.00970  -0.00353   0.00000  -0.00344   2.86743
    R9        2.95516   0.02028  -0.00095   0.00000  -0.00091   2.95425
   R10        2.58024  -0.00936  -0.00548   0.00000  -0.00543   2.57481
   R11        2.01959  -0.00387  -0.00271   0.00000  -0.00271   2.01687
   R12        2.01959  -0.00331  -0.00271   0.00000  -0.00271   2.01688
   R13        2.71165   0.09142   0.05191   0.00000   0.05184   2.76349
   R14        2.70051   0.03672   0.00701   0.00000   0.00701   2.70752
   R15        2.03127   0.01808   0.01040   0.00000   0.01040   2.04167
   R16        2.70281   0.03526   0.00585   0.00000   0.00578   2.70859
   R17        2.03087   0.01698   0.00994   0.00000   0.00994   2.04080
   R18        2.72594   0.02222   0.00672   0.00000   0.00676   2.73270
   R19        2.72492   0.01843   0.00758   0.00000   0.00771   2.73262
   R20        2.02877   0.01023   0.00759   0.00000   0.00759   2.03636
   R21        2.03208   0.00650   0.01130   0.00000   0.01130   2.04338
    A1        2.00879  -0.01222   0.00491   0.00000   0.00485   2.01365
    A2        2.17748   0.02586  -0.00002   0.00000   0.00012   2.17760
    A3        2.06527  -0.01314  -0.00453   0.00000  -0.00463   2.06064
    A4        1.62565   0.01701   0.01505   0.00000   0.01483   1.64048
    A5        2.30607  -0.01047  -0.01529   0.00000  -0.01520   2.29087
    A6        2.34591  -0.00764  -0.00069   0.00000  -0.00061   2.34530
    A7        1.62614   0.01319   0.01486   0.00000   0.01491   1.64106
    A8        2.34628  -0.00416   0.00009   0.00000   0.00002   2.34630
    A9        2.30586  -0.00914  -0.01526   0.00000  -0.01527   2.29060
   A10        2.15203  -0.02993  -0.01912   0.00000  -0.01898   2.13305
   A11        2.03030   0.04547   0.02419   0.00000   0.02405   2.05434
   A12        2.06898  -0.01506  -0.00517   0.00000  -0.00516   2.06382
   A13        1.64518   0.00786   0.00471   0.00000   0.00470   1.64988
   A14        2.31231  -0.00912  -0.00989   0.00000  -0.00991   2.30240
   A15        2.32570   0.00124   0.00519   0.00000   0.00516   2.33086
   A16        1.68872  -0.00450  -0.00777   0.00000  -0.00792   1.68080
   A17        2.29021  -0.00349  -0.00400   0.00000  -0.00395   2.28626
   A18        2.30420   0.00786   0.01170   0.00000   0.01176   2.31596
   A19        1.62812  -0.01351  -0.00640   0.00000  -0.00644   1.62168
   A20        2.01418   0.03805   0.01538   0.00000   0.01547   2.02965
   A21        1.98087  -0.00923  -0.00033   0.00000  -0.00040   1.98047
   A22        1.87240  -0.02152  -0.01443   0.00000  -0.01437   1.85803
   A23        2.05263   0.01924   0.01403   0.00000   0.01401   2.06664
   A24        1.90482  -0.01046  -0.00700   0.00000  -0.00693   1.89789
   A25        1.65960  -0.02015  -0.01743   0.00000  -0.01738   1.64222
   A26        1.99793   0.03713   0.01607   0.00000   0.01589   2.01382
   A27        1.97829  -0.00585   0.00477   0.00000   0.00493   1.98322
   A28        1.85853  -0.01712  -0.00772   0.00000  -0.00758   1.85095
   A29        2.04879   0.01792   0.01324   0.00000   0.01319   2.06198
   A30        1.91032  -0.01019  -0.00854   0.00000  -0.00857   1.90176
   A31        1.72793   0.04013   0.02379   0.00000   0.02350   1.75143
   A32        1.72410   0.04201   0.02643   0.00000   0.02627   1.75037
   A33        1.80659  -0.01155  -0.00754   0.00000  -0.00752   1.79906
   A34        1.95111   0.00804  -0.00169   0.00000  -0.00169   1.94942
   A35        1.92393   0.00172   0.00051   0.00000   0.00046   1.92439
   A36        1.95096   0.00895  -0.00124   0.00000  -0.00124   1.94972
   A37        1.92557  -0.00374   0.00173   0.00000   0.00166   1.92723
   A38        1.90435  -0.00364   0.00755   0.00000   0.00754   1.91189
    D1       -1.55118   0.01174   0.01145   0.00000   0.01130  -1.53987
    D2        1.48691   0.00156   0.00317   0.00000   0.00324   1.49014
    D3        1.31718   0.01121   0.01231   0.00000   0.01208   1.32926
    D4       -1.92793   0.00103   0.00403   0.00000   0.00402  -1.92391
    D5        1.40850  -0.01209  -0.01049   0.00000  -0.01045   1.39805
    D6       -1.72242  -0.00130  -0.00268   0.00000  -0.00269  -1.72512
    D7       -1.47848  -0.01812  -0.01193   0.00000  -0.01184  -1.49032
    D8        1.67378  -0.00732  -0.00412   0.00000  -0.00408   1.66970
    D9       -1.47958   0.01370   0.01151   0.00000   0.01153  -1.46805
   D10        0.45589  -0.00861  -0.00442   0.00000  -0.00457   0.45132
   D11        2.67295   0.00228  -0.00089   0.00000  -0.00081   2.67214
   D12        1.38068   0.01355   0.01377   0.00000   0.01370   1.39438
   D13       -2.96704  -0.00876  -0.00215   0.00000  -0.00240  -2.96944
   D14       -0.74998   0.00213   0.00138   0.00000   0.00137  -0.74861
   D15        0.17548  -0.01382  -0.01911   0.00000  -0.01909   0.15639
   D16       -2.86525  -0.01242  -0.01511   0.00000  -0.01494  -2.88019
   D17       -2.85863  -0.00303  -0.00916   0.00000  -0.00920  -2.86783
   D18        0.38383  -0.00163  -0.00516   0.00000  -0.00505   0.37878
   D19        1.29358  -0.00103   0.00232   0.00000   0.00253   1.29611
   D20       -1.57493  -0.00152   0.00304   0.00000   0.00334  -1.57159
   D21       -1.94510  -0.00197  -0.00019   0.00000  -0.00009  -1.94518
   D22        1.46958  -0.00246   0.00053   0.00000   0.00072   1.47030
   D23       -1.47248   0.01412   0.01536   0.00000   0.01532  -1.45716
   D24        1.66769   0.00252   0.00676   0.00000   0.00687   1.67455
   D25        1.39034   0.02341   0.01880   0.00000   0.01878   1.40912
   D26       -1.75267   0.01181   0.01021   0.00000   0.01032  -1.74235
   D27        1.42159  -0.00834  -0.00790   0.00000  -0.00782   1.41376
   D28       -0.51057   0.01158   0.00545   0.00000   0.00580  -0.50478
   D29       -2.71866  -0.00139  -0.00071   0.00000  -0.00064  -2.71930
   D30       -1.46050  -0.00576  -0.00460   0.00000  -0.00453  -1.46504
   D31        2.89052   0.01415   0.00875   0.00000   0.00909   2.89961
   D32        0.68244   0.00119   0.00260   0.00000   0.00265   0.68508
   D33        0.02468   0.00079   0.00138   0.00000   0.00150   0.02618
   D34       -3.12771  -0.01025  -0.00661   0.00000  -0.00662  -3.13434
   D35       -3.11547   0.01255   0.01003   0.00000   0.01020  -3.10527
   D36        0.01532   0.00151   0.00204   0.00000   0.00208   0.01740
   D37        0.01838   0.00113   0.00113   0.00000   0.00131   0.01969
   D38        2.06726   0.02899   0.00971   0.00000   0.01000   2.07727
   D39       -2.06936   0.01403   0.00136   0.00000   0.00156  -2.06780
   D40       -2.03930  -0.02956  -0.00954   0.00000  -0.00960  -2.04889
   D41        0.00959  -0.00170  -0.00097   0.00000  -0.00090   0.00869
   D42        2.15615  -0.01666  -0.00931   0.00000  -0.00935   2.14680
   D43        2.09056  -0.01149   0.00168   0.00000   0.00169   2.09226
[...]
 8223,0.00862862,-0.08042397,0.04137269,0.04784297,0.21575513,0.0411601
 0,-0.08526790,0.01935622,0.00526189,-0.00337888,-0.00013312,0.00962277
 ,-0.00210679,-0.00013254,0.04605159,-0.12822807,-0.09608439,-0.1740175
 6,0.64714143,-0.01264869,0.02749512,0.01049447,0.00354177,0.00168090,-
 0.00358893,0.01760711,-0.00999068,0.00097586,0.02788826,-0.05744879,-0
 .08979731,0.01078088,-0.20837658,0.56633745,-0.08137648,0.05344974,0.0
 2598328,-0.01859068,0.01385208,0.01869444,-0.00614419,0.00180692,0.003
 17619,0.00996235,0.00491663,0.02463194,-0.06004643,0.01544673,-0.02790
 908,0.19676230,0.04212394,-0.13997775,-0.05262440,0.01696381,0.0000458
 1,-0.01059665,0.00512011,-0.00235189,0.00110472,0.00160376,0.01401878,
 -0.01031708,0.02311587,-0.20714866,0.21221841,-0.09316202,0.41803430,0
 .04147740,-0.09192371,-0.07709475,0.00491927,-0.00145251,-0.00093398,0
 .00380798,-0.00021627,-0.00488668,0.03111219,-0.01842526,-0.09733550,-
 0.04559644,0.25427513,-0.39740367,-0.07191248,-0.12091744,0.81443696,-
 0.00102533,0.00057670,0.00136872,0.00484368,-0.00079443,0.00127405,-0.
 11159458,-0.04725090,0.08398770,-0.02462425,-0.00583450,0.01466501,-0.
 00012961,-0.00098338,-0.00041492,0.00025771,-0.00021559,0.00029381,0.1
 3122624,-0.00026408,0.00480029,0.00388696,-0.00860950,-0.00546848,0.01
 634952,-0.04669362,-0.06770842,0.04915358,0.00087418,0.00540929,0.0009
 5746,-0.00003031,-0.00036457,0.00006705,-0.00067055,-0.00026810,0.0006
 2659,0.05419702,0.06277660,0.00127472,0.00402974,0.00117578,0.01332529
 ,0.01486145,-0.02067116,0.08337512,0.04910214,-0.12997429,0.00371738,0
 .00208777,0.00207196,-0.00034181,-0.00063934,-0.00027765,-0.00056981,-
 0.00022336,0.00063729,-0.10155176,-0.07077529,0.14734108,0.00591887,0.
 00312842,0.00080130,0.00053508,-0.00110118,0.00008806,-0.00020261,-0.0
 0035263,0.00004645,0.00032640,0.01255821,0.00220186,-0.06232357,0.0586
 6068,-0.01589102,0.00313622,0.00419771,-0.00253585,-0.00004492,0.00011
 911,0.00013516,0.05218864,0.00352991,-0.00082902,0.00056609,0.00007075
 ,-0.00029577,0.00035247,-0.00061564,-0.00039819,0.00008500,0.01071608,
 -0.01762371,-0.00320348,0.05858793,-0.20118289,0.04141877,0.00664236,-
 0.01599233,0.01190431,0.00003644,0.00012819,-0.00013043,-0.07880235,0.
 23558837,0.00136672,0.00098410,-0.00009703,0.00012685,-0.00024924,0.00
 037263,-0.00088400,-0.00064154,-0.00021033,0.00703152,-0.01458634,0.00
 100677,-0.01564948,0.04038844,-0.04631421,-0.00808412,0.02507880,-0.00
 832164,-0.00006965,-0.00006268,0.00008668,0.01567101,-0.05174129,0.053
 57900,0.00127270,0.00652276,0.01104103,-0.00017193,-0.00005062,-0.0002
 8434,0.00040141,-0.00030354,-0.00108799,0.00604037,0.00243671,0.001508
 62,0.00471036,-0.00009748,-0.00125472,-0.04935002,0.00293800,0.0405534
 8,0.00014551,0.00002248,0.00015614,0.00108612,0.00017828,0.00005506,0.
 03656136,0.00872375,-0.00640420,-0.01888188,-0.00110203,-0.00053881,-0
 .00050794,0.00008292,0.00029397,-0.00061347,0.00316192,0.00080931,0.00
 029752,-0.00249115,0.00315978,0.01776053,0.00299213,-0.03891585,-0.021
 71429,-0.00000222,0.00017420,0.00013175,0.00025981,0.00027849,0.000462
 04,-0.01181800,0.04095025,0.00645233,-0.00746334,-0.01115956,-0.000236
 32,0.00008711,-0.00010046,-0.00008082,0.00014396,-0.00008365,0.0016994
 0,-0.00000793,-0.00185714,0.00432792,0.00459079,-0.02904834,0.04029931
 ,-0.02068597,-0.22155354,0.00007410,0.00005220,-0.00007478,-0.00012373
 ,0.00084728,-0.00028678,-0.05206312,0.02273025,0.26384434,-0.02683897,
 0.00872109,-0.00698821,-0.14388786,0.06226180,-0.07637139,0.00106657,0
 .00405991,-0.00540993,-0.00136292,0.00148532,0.00001526,0.00021239,0.0
 0018469,-0.00032314,-0.00011689,-0.00069438,-0.00069533,0.00062773,0.0
 0021970,-0.00024339,0.00011010,0.00009077,-0.00005342,-0.00003337,-0.0
 0005896,0.00009924,0.16994397,0.00129367,0.00478587,0.00163599,0.06189
 758,-0.07525079,0.04134581,0.01204384,-0.00632943,0.01393832,0.0011077
 7,0.00471239,0.00401327,-0.00089339,0.00058855,-0.00051308,-0.00037154
 ,-0.00059052,-0.00060605,-0.00001142,0.00062670,0.00093712,0.00018616,
 0.00004856,0.00016537,0.00015059,0.00003476,-0.00010288,-0.07653401,0.
 07160502,0.00347712,0.00043363,0.00490997,-0.07562921,0.04141692,-0.09
 013872,-0.01734782,0.01544310,-0.01603324,-0.00070852,0.00374868,0.001
 60087,-0.00048819,0.00018401,-0.00017421,0.00008767,0.00022742,-0.0000
 6479,0.00010846,0.00088698,-0.00012885,-0.00005479,0.00009777,0.000086
 32,0.00009049,-0.00000592,0.00016864,0.08990808,-0.06140019,0.09979496
 ,-0.10806502,-0.05089556,-0.03582614,-0.02165254,-0.01889322,-0.000091
 50,-0.00557291,-0.00215404,0.00043253,-0.00419097,-0.03197745,0.007350
 20,-0.00034568,-0.00118893,-0.00079032,0.00577631,0.00024079,-0.000386
 33,0.00011688,0.00085737,0.00051791,-0.00015887,-0.00013786,-0.0003052
 5,-0.00057945,0.00060416,-0.00001454,-0.00002217,-0.00039311,0.0001914
 1,0.42158430,-0.05745240,-0.09212407,-0.05112542,-0.00737927,0.0000906
 2,0.00251742,-0.00284868,-0.00199571,0.00040119,-0.03409520,-0.0632528
 2,0.02174608,0.00019428,-0.00554324,-0.00185392,-0.00256697,-0.0220501
 6,-0.00871859,-0.00035401,0.00037954,0.00072781,0.00095715,-0.00020145
 ,0.00031297,-0.00049356,0.00007074,-0.00064157,0.00040150,0.00048592,-
 0.00111638,0.04241009,0.46822247,-0.02368795,-0.02734993,-0.05502570,-
 0.00584299,-0.00218589,0.00465376,-0.00154990,-0.00003048,-0.00069750,
 0.00708074,0.02810363,-0.00321310,0.00016921,-0.00198765,-0.00159142,-
 0.00250636,-0.01976748,-0.00323380,-0.00051684,-0.00048515,-0.00034475
 ,0.00005810,-0.00028946,-0.00010905,0.00033420,-0.00001198,-0.00017141
 ,0.00008239,0.00037497,-0.00025497,-0.10596118,0.01456605,0.40107940,-
 0.01322501,-0.00764004,-0.04031094,-0.00575844,-0.00087817,-0.00156515
 ,-0.02255920,-0.00942867,-0.01375702,-0.10773240,-0.06088827,-0.023600
 07,0.00591061,0.00020522,0.00032238,-0.00037086,-0.00124457,-0.0009777
 2,-0.00004908,-0.00003926,-0.00040787,-0.00059123,0.00012486,0.0006641
 2,-0.00005106,-0.00028774,0.00000006,0.00015287,0.00095130,0.00061830,
 -0.04694957,0.01544396,-0.00570446,0.45749765,-0.00780076,0.00441139,-
 0.00252628,-0.00301608,-0.00106903,-0.00033076,-0.01110282,0.00245377,
 -0.00394922,-0.04890354,-0.09739409,-0.02535103,-0.00429213,-0.0162808
 9,-0.02172058,0.00012995,-0.00360247,-0.00292880,0.00035816,-0.0003819
 0,0.00066205,0.00012598,-0.00033823,0.00020668,0.00036855,-0.00010677,
 -0.00037936,-0.00061340,-0.00013127,-0.00012523,0.00683656,-0.05317334
 ,0.04017524,-0.07365405,0.40647892,-0.04157049,-0.00911149,-0.06184414
 ,-0.00148337,-0.00018200,-0.00143861,-0.00140212,0.00173668,0.00319791
 ,-0.03209655,-0.04858400,-0.05008747,-0.00245986,-0.01140090,-0.009137
 17,-0.00008634,-0.00252037,-0.00350745,0.00050128,-0.00071035,0.000639
 84,-0.00042058,-0.00053223,0.00024986,0.00081187,0.00039772,-0.0003113
 3,-0.00020974,0.00081027,0.00013034,0.00616936,0.04658332,-0.09038687,
 0.07512981,0.05190303,0.42690803,-0.00054122,-0.00069565,-0.00032065,-
 0.00003181,-0.00015136,-0.00032411,-0.00065071,-0.00043868,-0.00061328
 ,0.00899934,-0.00246727,-0.00198508,0.00054622,-0.00054302,-0.00101281
 ,0.00019314,-0.00015576,0.00008502,0.00014995,0.00023978,0.00058995,-0
 .00011990,-0.00024313,-0.00002589,-0.00006105,-0.00009983,-0.00024633,
 -0.00001438,0.00025199,0.00003686,0.00013904,0.00462987,0.01821307,-0.
 06514526,0.04232325,0.04316882,0.17886035,0.00046493,0.00117078,-0.000
 86651,0.00058613,0.00104433,0.00033696,0.00043316,-0.00105585,0.000518
 52,0.00119277,-0.02226583,-0.02675188,-0.00303680,-0.00130934,-0.00129
 389,0.00066501,0.00019352,-0.00028714,0.00006143,0.00005170,-0.0001293
 4,0.00013332,0.00030661,-0.00028181,0.00013864,0.00032407,0.00052220,0
 .00042395,-0.00053301,0.00005995,0.00040840,-0.00344817,-0.00952383,0.
 05019375,-0.09073105,-0.06741102,-0.16891637,0.30882435,-0.00135542,0.
 00023339,-0.00085643,-0.00054528,-0.00017594,-0.00045303,0.00009560,-0
 .00067481,0.00017885,-0.00487561,-0.02028607,-0.01562769,-0.00154945,0
 .00066121,0.00003508,0.00010080,0.00012899,-0.00051155,0.00019617,0.00
 004579,-0.00054526,-0.00007544,0.00035501,-0.00015227,0.00012881,0.000
 13043,0.00028586,0.00014827,-0.00013725,0.00012621,0.01230572,0.002568
 44,-0.05641052,0.04906395,-0.07035552,-0.16464572,-0.00965659,0.018166
 36,0.36583340,0.00967561,-0.00185763,-0.00204423,-0.00056740,-0.000758
 80,-0.00010279,0.00012418,-0.00021070,0.00004356,-0.00031930,-0.000518
 36,-0.00041655,0.00020297,0.00008040,-0.00022050,0.00055056,-0.0012744
 8,-0.00033565,0.00002107,0.00010668,0.00019114,-0.00004007,-0.00025424
 ,0.00001594,-0.00011414,-0.00013668,-0.00021477,0.00005840,0.00069403,
 -0.00003953,-0.06956005,0.06454826,0.02686122,-0.00452308,0.02415384,-
 0.00537851,0.00942563,-0.00471709,-0.00243987,0.15501723,-0.00227769,-
 0.03358788,-0.01558401,0.00005173,-0.00010810,-0.00111887,-0.00021161,
 -0.00023071,0.00036175,-0.00088982,-0.00092866,0.00112794,0.00045491,-
 0.00042420,0.00032503,-0.00242181,-0.00072294,0.00060433,0.00024563,0.
 00004042,-0.00037584,0.00012494,0.00050999,0.00003041,0.00004408,-0.00
 007095,0.00048414,0.00029028,-0.00040427,0.00023075,0.07247242,-0.1904
 4071,-0.03178839,0.01881888,-0.04785272,0.01966754,0.00209696,-0.01557
 582,0.02795451,-0.09226018,0.35516813,0.00302110,-0.02172560,-0.004983
 30,0.00031728,0.00024247,-0.00085208,0.00075907,0.00094827,0.00066618,
 0.00114781,0.00010703,0.00102148,0.00056575,0.00002884,0.00009650,-0.0
 0224243,-0.00171413,-0.00055570,0.00028826,-0.00014743,-0.00048256,0.0
 0005532,0.00048377,0.00007905,0.00020868,-0.00009738,0.00021964,-0.000
 03653,-0.00000229,0.00000219,0.03156485,-0.02726667,-0.06052115,-0.005
 88407,0.00662064,-0.00734341,-0.01646961,0.05399358,-0.04799867,-0.130
 15023,-0.00881365,0.34333278,0.00071000,-0.00167990,-0.00073637,0.0001
 7639,-0.00024176,-0.00054520,0.00021103,-0.00075489,-0.00008954,0.0006
 1829,-0.00127737,-0.00171582,-0.00062933,-0.00023442,-0.00012974,-0.00
 046277,-0.00017083,-0.00005347,-0.00000412,-0.00021228,-0.00024384,0.0
 0007452,0.00019575,-0.00001817,0.00008003,0.00008596,0.00019523,0.0000
 5569,-0.00037578,-0.00011062,-0.01814434,0.01106641,0.02155759,-0.0211
 4468,0.02672645,0.01046774,-0.08693325,0.07517953,-0.04080059,-0.06504
 032,-0.00593346,0.07218530,0.43229732,0.00163190,-0.00288784,-0.001088
 62,-0.00059194,-0.00134447,-0.00139415,-0.00041085,-0.00065827,-0.0003
 4087,0.00168732,-0.00181017,-0.00013775,0.00045971,0.00010320,-0.00004
 708,-0.00061583,-0.00060708,-0.00014110,0.00001704,-0.00010902,-0.0002
 1023,-0.00001758,0.00007608,0.00004569,0.00007667,-0.00007069,-0.00007
 033,-0.00027276,0.00023617,0.00001675,0.01323476,0.01315063,-0.0304424
 2,0.02726094,-0.05087322,-0.01732770,0.06845988,-0.12072049,0.04560829
 ,-0.00505433,-0.07017907,0.02328733,-0.02594061,0.43770716,0.00089935,
 0.00064706,-0.00147816,-0.00022674,-0.00007148,0.00017582,-0.00041178,
 -0.00166389,-0.00054446,0.00085954,-0.00124746,-0.00246505,-0.00082935
 ,-0.00047541,-0.00042649,0.00081374,0.00031175,0.00011810,-0.00027832,
 0.00015468,0.00038195,0.00008557,-0.00014315,-0.00007100,-0.00005807,0
 .00009677,0.00007042,0.00014689,-0.00031503,-0.00002294,0.02304771,-0.
 04240795,-0.03742068,0.01079151,-0.00509219,0.02960263,-0.03576346,0.0
 3634920,-0.09373453,0.06323000,0.03196245,-0.16616970,-0.02588811,0.06
 320219,0.39238315,-0.00015595,0.00013617,0.00014234,-0.00006688,-0.000
 12169,-0.00004908,-0.00007178,-0.00010445,-0.00010401,-0.00021973,0.00
 018280,0.00015956,0.00008508,0.00007152,0.00010398,0.00005805,0.000116
 97,0.00001008,0.00000820,0.00003460,0.00000958,-0.00000230,-0.00003011
 ,0.00000022,-0.00000460,-0.00001472,-0.00002745,0.00001045,0.00001756,
 0.00002832,0.00012765,-0.00042655,0.00157013,-0.00007869,0.00186555,-0
 .00157949,0.00157074,0.01528265,0.00599872,0.00284990,0.00810872,0.008
 57748,-0.04604925,-0.04030843,-0.02610021,0.04875158,-0.00009331,0.000
 10511,0.00000673,0.00003268,-0.00000752,0.00008131,0.00002827,0.000118
 50,0.00009047,0.00031135,-0.00005653,-0.00033639,-0.00004129,-0.000014
 93,-0.00008635,0.00009137,0.00000449,0.00006251,-0.00004625,-0.0000658
 7,0.00000492,0.00000541,-0.00005490,0.00000857,-0.00000386,0.00000885,
 -0.00005444,-0.00005582,0.00001060,-0.00006412,0.00000387,-0.00135213,
 0.00111813,-0.00060374,-0.00334728,0.00230656,0.00822422,-0.03502074,-
 0.00768194,0.00112142,0.00315715,-0.01006904,-0.03480489,-0.15133492,-
 0.07355520,0.03245054,0.19187040,0.00043300,-0.00038628,0.00001537,0.0
 0002173,0.00015794,0.00004889,0.00001760,0.00004247,-0.00007244,-0.000
 19852,0.00004655,0.00024061,0.00009792,0.00007259,-0.00000865,-0.00007
 684,-0.00011023,-0.00000116,-0.00003083,-0.00004124,0.00004168,0.00000
 281,-0.00002526,0.00002772,0.00000112,-0.00001599,-0.00003372,-0.00003
 471,-0.00003334,-0.00003708,-0.00133985,0.00145710,-0.00480794,-0.0000
 3784,0.00176421,-0.00260630,-0.00056882,0.00443634,0.00964322,0.005719
 52,-0.02359026,-0.02981353,-0.02240694,-0.07300553,-0.08329814,0.02146
 712,0.09487848,0.10718068,-0.00007753,-0.00007444,-0.00014174,0.000069
 04,0.00026504,0.00002536,0.00008704,0.00015671,0.00024969,0.00002032,-
 0.00016301,-0.00004052,-0.00013418,-0.00007285,-0.00005507,-0.00013227
 ,-0.00008453,-0.00003137,0.00005593,-0.00008087,-0.00005507,0.00002253
 ,0.00004647,-0.00000850,0.00002962,0.00001204,0.00004090,0.00005521,-0
 .00008644,-0.00006768,-0.00082207,0.00058017,0.00095018,-0.00133167,0.
 00067282,-0.00023178,-0.02620293,0.01224118,-0.01057414,-0.01892192,-0
 .00721208,0.01602919,-0.19279707,-0.04216335,-0.01167476,-0.00680054,-
 0.00696883,-0.00334962,0.24721986,0.00029655,-0.00005425,-0.00002150,-
 0.00015715,-0.00029693,-0.00080463,-0.00005805,-0.00103877,-0.00012257
 ,-0.00027447,-0.00003359,0.00015458,-0.00008805,-0.00000200,0.00002825
 ,-0.00008515,-0.00002660,0.00001998,-0.00008233,-0.00020935,0.00000427
 ,0.00003580,-0.00001200,0.00002177,0.00001793,0.00001855,-0.00001159,-
 0.00010035,-0.00001695,-0.00014161,-0.00055589,-0.00098684,-0.00052346
 ,0.00241581,0.00142197,0.00289892,0.02577429,-0.00654851,0.00589356,-0
 .00523586,0.00379443,0.00651062,-0.04724524,-0.04522612,-0.00792494,-0
 .01765061,-0.00429113,-0.00546923,0.04293723,0.05381354,-0.00043677,0.
 00014324,-0.00003182,-0.00008915,-0.00046412,-0.00064787,-0.00006309,-
 0.00052662,0.00007616,0.00042841,0.00001574,-0.00014999,-0.00004686,0.
 00000846,-0.00002822,-0.00005021,0.00003815,-0.00000543,-0.00005958,-0
 .00006336,0.00005865,0.00000564,-0.00000169,0.00001231,0.00002354,0.00
 001137,-0.00002534,-0.00007356,-0.00007554,-0.00013300,0.00261693,0.00
 408673,0.00001997,-0.00149152,-0.00165043,-0.00187912,-0.01433992,0.00
 907800,0.00055393,0.03020283,0.00487509,-0.01707003,-0.01508495,-0.008
 43257,-0.03053739,-0.01051777,-0.00653603,0.00315012,0.00884903,0.0000
 7324,0.04647988,-0.00047359,-0.00060711,-0.00050081,-0.00010279,0.0002
 2886,0.00007921,0.00001347,-0.00032911,-0.00078547,-0.02203931,-0.0049
 6681,-0.01198603,-0.00017897,0.00029125,0.00015098,0.00008589,0.000261
 28,-0.00002539,-0.00000904,-0.00008959,0.00003023,0.00004899,-0.000104
 21,0.00013341,0.00002692,0.00001100,-0.00005904,-0.00000254,0.00009001
 ,-0.00002705,-0.00151135,0.00414076,-0.00581644,-0.17636578,0.04829323
 ,-0.05264502,-0.02098816,0.01943135,0.00603120,0.00095705,-0.00164706,
 0.00049932,-0.00136035,0.00026025,0.00196156,-0.00000667,0.00027617,-0
 .00000243,-0.00019628,0.00015496,-0.00013556,0.22139889,-0.00008844,-0
 .00014473,0.00016877,-0.00023477,0.00017450,0.00008990,-0.00038090,-0.
 00110955,-0.00130467,-0.01692181,0.00132654,-0.00614259,-0.00039344,0.
 00025186,0.00033359,0.00016974,0.00017051,0.00004066,0.00002925,0.0000
 9828,-0.00012936,-0.00017833,0.00006124,-0.00012569,-0.00003480,0.0000
 2913,0.00003121,0.00018278,0.00012182,0.00010123,0.01114928,-0.0045069
 5,0.00825665,0.04746920,-0.04679142,0.02105953,0.02208949,-0.01460092,
 -0.00456710,0.00013781,-0.00053962,-0.00048980,0.00246105,-0.00028429,
 -0.00203140,0.00012912,-0.00008092,0.00018260,0.00009000,-0.00042782,0
 .00018442,-0.06577293,0.06615433,-0.00066086,-0.00030902,-0.00119215,0
 .00000600,0.00011797,-0.00020634,0.00029911,-0.00012348,-0.00039887,-0
 .01111044,-0.00329516,-0.00080222,-0.00009735,-0.00045139,-0.00024463,
 -0.00003434,-0.00008670,-0.00001489,-0.00000358,-0.00002513,0.00004710
 ,-0.00002388,-0.00011486,0.00003690,-0.00003587,-0.00006227,-0.0000632
 1,-0.00001934,0.00004814,0.00001804,-0.01513803,0.00994117,-0.00851937
 ,-0.05633701,0.02421846,-0.05337772,0.01898967,-0.01627783,0.00531266,
 -0.00088558,0.00243917,-0.00075322,0.00165128,0.00045737,-0.00587264,0
 .00031494,-0.00018202,0.00038169,0.00000577,-0.00055963,0.00038036,0.0
 6311935,-0.01588455,0.06533442,-0.02019235,-0.01493949,0.00353882,0.00
 001558,-0.00093470,-0.00005745,-0.00011704,0.00018042,0.00018189,-0.00
 038871,-0.00054355,-0.00035455,0.00013232,0.00010121,0.00025494,-0.000
 19153,0.00032014,0.00029050,0.00002799,0.00001905,0.00009087,0.0000362
 7,-0.00003192,0.00003367,0.00001157,0.00007773,-0.00012221,-0.00001421
 ,-0.00001904,-0.00007322,-0.15016859,-0.03875708,0.07470907,0.00231512
 ,-0.00247256,0.00331396,0.00080354,-0.00016449,-0.00219616,-0.01979693
 ,0.01014667,0.01956390,-0.00165703,0.00228617,-0.00060508,-0.00000550,
 0.00007285,0.00028558,-0.00014308,-0.00009938,0.00026259,0.00070342,0.
 00009774,-0.00003997,0.18862922,-0.01816358,-0.00671101,0.00137453,0.0
 0020453,-0.00106896,-0.00019381,-0.00005431,-0.00006928,0.00024795,-0.
 00056441,-0.00120407,0.00012838,0.00004177,0.00000714,0.00000336,-0.00
 026866,-0.00021175,-0.00020218,0.00005322,0.00009152,0.00006454,-0.000
 04027,-0.00006864,-0.00001639,-0.00009286,-0.00004488,-0.00007178,0.00
 000804,-0.00000021,0.00000606,-0.04202266,-0.04332332,0.03179223,-0.00
 821905,-0.00269111,0.01041843,-0.00037702,-0.00010643,0.00213162,0.021
 43711,-0.00160457,-0.02189747,0.00315500,-0.00516762,0.00220476,0.0002
 6027,0.00035122,-0.00036063,-0.00009525,0.00012234,-0.00076411,0.00007
 793,0.00009777,0.00015005,0.04466019,0.06160158,-0.00752275,-0.0029888
 3,0.00538866,-0.00041233,-0.00126651,-0.00044180,-0.00021353,0.0001501
 0,0.00005177,0.00013952,0.00065608,-0.00021775,0.00016256,0.00011558,0
 .00010201,-0.00031576,0.00045574,0.00023155,0.00016829,0.00013036,0.00
 001797,-0.00002579,0.00007173,0.00002523,-0.00012915,-0.00010709,0.000
 18044,0.00005849,-0.00008360,0.00015056,0.07565634,0.02822458,-0.08304
 342,0.01348263,0.00886010,-0.01416166,0.00024390,-0.00064025,-0.001032
 74,0.01596596,-0.00879353,-0.00887449,0.00176492,0.00002222,-0.0006925
 6,-0.00000467,0.00000799,-0.00005173,0.00008040,-0.00002609,-0.0002230
 2,-0.00002167,0.00022626,-0.00006642,-0.09907724,-0.02501523,0.1026568
 7||-0.00000004,0.00000021,-0.00000053,-0.00000035,-0.00000070,0.000000
 24,-0.00000013,0.00000103,-0.00000008,0.00000074,0.00000005,0.00000080
 ,0.00000006,0.00000004,-0.00000048,-0.00000015,-0.00000014,0.00000002,
 -0.00000008,-0.00000016,-0.00000017,-0.00000007,0.,0.00000014,0.000000
 06,-0.00000003,0.,0.00000002,0.00000013,0.,0.,-0.00000051,0.00000112,-
 0.00000003,0.00000064,-0.00000089,-0.00000012,0.,-0.00000005,0.0000003
 0,-0.00000002,0.00000004,-0.00000027,-0.00000032,-0.00000020,0.0000000
 7,-0.00000005,-0.00000009,0.00000017,-0.00000020,0.00000007,-0.0000000
 9,-0.00000012,0.00000015,-0.00000009,0.00000015,-0.00000011|||@
 The archive entry for this job was punched.


 ...THE PHYSICISTS HAVE MADE THEIR UNIVERSE, AND IF YOU DO NOT LIKE
 IT, YOU MUST MAKE YOUR OWN.
                               -- E. R. HARRISON IN "COSMOLOGY" (1980)
 Job cpu time:       0 days  0 hours  0 minutes  6.0 seconds.
 Elapsed time:       0 days  0 hours  0 minutes  3.9 seconds.
 File lengths (MBytes):  RWF=     24 Int=      0 D2E=      0 Chk=      2 Scr=      1
 Normal termination of Gaussian 16 at Thu Nov 13 15:07:26 2025.
