 Default is to use a total of   8 processors:
                                8 via shared-memory
                                1 via Linda
 Entering Link 1 = C:\G16W\l1.exe PID=      1068.
  
 Copyright (c) 1988-2019, Gaussian, Inc.  All Rights Reserved.
  
 This is part of the Gaussian(R) 16 program.  It is based on
 the Gaussian(R) 09 system (copyright 2009, Gaussian, Inc.),
 the Gaussian(R) 03 system (copyright 2003, Gaussian, Inc.),
 the Gaussian(R) 98 system (copyright 1998, Gaussian, Inc.),
 the Gaussian(R) 94 system (copyright 1995, Gaussian, Inc.),
 the Gaussian 92(TM) system (copyright 1992, Gaussian, Inc.),
 the Gaussian 90(TM) system (copyright 1990, Gaussian, Inc.),
 the Gaussian 88(TM) system (copyright 1988, Gaussian, Inc.),
 the Gaussian 86(TM) system (copyright 1986, Carnegie Mellon
 University), and the Gaussian 82(TM) system (copyright 1983,
 Carnegie Mellon University). Gaussian is a federally registered
 trademark of Gaussian, Inc.
  
 This software contains proprietary and confidential information,
 including trade secrets, belonging to Gaussian, Inc.
  
 This software is provided under written license and may be
 used, copied, transmitted, or stored only in accord with that
 written license.
  
 The following legend is applicable only to US Government
 contracts under FAR:
  
                    RESTRICTED RIGHTS LEGEND
  
 Use, reproduction and disclosure by the US Government is
 subject to restrictions as set forth in subparagraphs (a)
 and (c) of the Commercial Computer Software - Restricted
 Rights clause in FAR 52.227-19.
  
 Gaussian, Inc.
 340 Quinnipiac St., Bldg. 40, Wallingford CT 06492
  
  
 ---------------------------------------------------------------
 Warning -- This program may not be used in any manner that
 competes with the business of Gaussian, Inc. or will provide
 assistance to any competitor of Gaussian, Inc.  The licensee
 of this program is prohibited from giving any competitor of
 Gaussian, Inc. access to this program.  By using this program,
 the user acknowledges that Gaussian, Inc. is engaged in the
 business of creating and licensing software in the field of
 computational chemistry and represents and warrants to the
 licensee that it is not a competitor of Gaussian, Inc. and that
 it will not use this program in any manner prohibited above.
 ---------------------------------------------------------------
  

 Cite this work as:
 Gaussian 16, Revision C.01,
 M. J. Frisch, G. W. Trucks, H. B. Schlegel, G. E. Scuseria, 
 M. A. Robb, J. R. Cheeseman, G. Scalmani, V. Barone, 
 G. A. Petersson, H. Nakatsuji, X. Li, M. Caricato, A. V. Marenich, 
 J. Bloino, B. G. Janesko, R. Gomperts, B. Mennucci, H. P. Hratchian, 
 J. V. Ortiz, A. F. Izmaylov, J. L. Sonnenberg, D. Williams-Young, 
 F. Ding, F. Lipparini, F. Egidi, J. Goings, B. Peng, A. Petrone, 
 T. Henderson, D. Ranasinghe, V. G. Zakrzewski, J. Gao, N. Rega, 
 G. Zheng, W. Liang, M. Hada, M. Ehara, K. Toyota, R. Fukuda, 
 J. Hasegawa, M. Ishida, T. Nakajima, Y. Honda, O. Kitao, H. Nakai, 
 T. Vreven, K. Throssell, J. A. Montgomery, Jr., J. E. Peralta, 
 F. Ogliaro, M. J. Bearpark, J. J. Heyd, E. N. Brothers, K. N. Kudin, 
 V. N. Staroverov, T. A. Keith, R. Kobayashi, J. Normand, 
 K. Raghavachari, A. P. Rendell, J. C. Burant, S. S. Iyengar, 
 J. Tomasi, M. Cossi, J. M. Millam, M. Klene, C. Adamo, R. Cammi, 
 J. W. Ochterski, R. L. Martin, K. Morokuma, O. Farkas, 
 J. B. Foresman, and D. J. Fox, Gaussian, Inc., Wallingford CT, 2019.
 
 ******************************************
 Gaussian 16:  EM64W-G16RevC.01 30-May-2019
                13-Nov-2025 
 ******************************************
 %chk=C:\Users\al6323\OneDrive - Imperial College London\Desktop\TSR20251113\TS(B
 erny)_PM6_endo_unfreeze.chk
 Default route: MaxDisk=10GB
 ----------------------------------------------------------------------
 # opt=(calcfc,tight,ts,maxcycles=200,noeigen,maxstep=1) freq pm6 nosym
 m geom=connectivity scf=(xqc,tight)
 ----------------------------------------------------------------------
 1/5=1,6=200,7=10,8=1,10=4,11=1,18=20,26=1,38=1,57=2/1,3;
 2/9=110,12=2,15=1,17=6,18=5,40=1/2;
 3/5=2,25=1,41=3900000,71=2,140=1/1,2,3;
 4/35=1/1;
 5/5=2,8=3,13=1,32=2,35=1,38=5/2,8;
 8/6=4,10=90,11=11/1;
 11/6=1,8=1,9=11,15=111,16=1,31=1/1,2,10;
 10/6=1,13=1,31=1/2;
 6/7=2,8=2,9=2,10=2,28=1/1;
 7/10=1,25=1,30=1/1,2,3,16;
 1/5=1,6=200,7=10,8=1,10=4,11=1,18=20,26=1/3(2);
 2/9=110,15=1/2;
 99//99;
 2/9=110,15=1/2;
 3/5=2,25=1,41=3900000,71=1,135=20/1,2,3;
 4/5=5,16=3,35=1/1;
 5/5=2,8=3,13=1,32=2,35=1,38=5/2,8;
 7/30=1/1,2,3,16;
 1/5=1,6=200,7=10,8=1,11=1,18=20,26=1/3(-5);
 2/9=110,15=1/2;
 6/7=2,8=2,9=2,10=2,19=2,28=1/1;
 99/9=1/99;
 ------------------
 TS(Berny)_PM6_endo
 ------------------
 Symbolic Z-matrix:
 Charge =  0 Multiplicity = 1
 C                    -0.42209   1.06318   0.80543 
 C                     0.82478   1.65327   1.09278 
 C                     0.956     2.2642   -0.1763 
 C                    -0.27728   1.75062  -0.67793 
 C                    -1.69928   1.84301  -0.63917 
 C                    -1.81156   1.22341   0.62401 
 H                     1.70331   2.8734   -0.62302 
 H                    -2.40161   2.21399  -1.34662 
 H                    -2.6419    0.96241   1.23914 
 H                     1.43836   1.64087   1.96358 
 C                     0.32251  -0.70602  -0.66984 
 C                     0.13793   0.12813  -1.7622 
 O                    -1.02935  -0.29688  -2.44892 
 O                    -0.69771  -1.63865  -0.56651 
 C                    -1.63641  -1.34836  -1.65322 
 H                    -2.56545  -0.96882  -1.20797 
 H                    -1.72121  -2.24677  -2.27716 
 H                     0.80317   0.64855  -2.43028 
 H                     1.10205  -0.85671   0.04933 
 

 GradGradGradGradGradGradGradGradGradGradGradGradGradGradGradGradGradGrad
 Berny optimization.
 Initialization pass.
                           ----------------------------
                           !    Initial Parameters    !
                           ! (Angstroms and Degrees)  !
 --------------------------                            --------------------------
 ! Name  Definition              Value          Derivative Info.                !
 --------------------------------------------------------------------------------
 ! R1    R(1,2)                  1.4091         calculate D2E/DX2 analytically  !
 ! R2    R(1,6)                  1.4104         calculate D2E/DX2 analytically  !
 ! R3    R(1,11)                 2.4209         calculate D2E/DX2 analytically  !
 ! R4    R(2,3)                  1.4146         calculate D2E/DX2 analytically  !
 ! R5    R(2,10)                 1.0653         calculate D2E/DX2 analytically  !
 ! R6    R(3,4)                  1.427          calculate D2E/DX2 analytically  !
 ! R7    R(3,7)                  1.0626         calculate D2E/DX2 analytically  !
 ! R8    R(4,5)                  1.4255         calculate D2E/DX2 analytically  !
 ! R9    R(4,12)                 1.9951         calculate D2E/DX2 analytically  !
 ! R10   R(5,6)                  1.4114         calculate D2E/DX2 analytically  !
 ! R11   R(5,8)                  1.0637         calculate D2E/DX2 analytically  !
 ! R12   R(6,9)                  1.0658         calculate D2E/DX2 analytically  !
 ! R13   R(11,12)                1.3868         calculate D2E/DX2 analytically  !
 ! R14   R(11,14)                1.3861         calculate D2E/DX2 analytically  !
 ! R15   R(11,19)                1.0713         calculate D2E/DX2 analytically  !
 ! R16   R(12,13)                1.4194         calculate D2E/DX2 analytically  !
 ! R17   R(12,18)                1.0769         calculate D2E/DX2 analytically  !
 ! R18   R(13,15)                1.4516         calculate D2E/DX2 analytically  !
 ! R19   R(14,15)                1.4651         calculate D2E/DX2 analytically  !
 ! R20   R(15,16)                1.0979         calculate D2E/DX2 analytically  !
 ! R21   R(15,17)                1.0971         calculate D2E/DX2 analytically  !
 ! A1    A(2,1,6)              148.2576         calculate D2E/DX2 analytically  !
 ! A2    A(2,1,11)              99.0995         calculate D2E/DX2 analytically  !
 ! A3    A(6,1,11)             107.9173         calculate D2E/DX2 analytically  !
 ! A4    A(1,2,3)               94.5876         calculate D2E/DX2 analytically  !
 ! A5    A(1,2,10)             132.1816         calculate D2E/DX2 analytically  !
 ! A6    A(3,2,10)             133.2299         calculate D2E/DX2 analytically  !
 ! A7    A(2,3,4)               94.5753         calculate D2E/DX2 analytically  !
 ! A8    A(2,3,7)              133.6294         calculate D2E/DX2 analytically  !
 ! A9    A(4,3,7)              131.7857         calculate D2E/DX2 analytically  !
 ! A10   A(3,4,5)              146.0188         calculate D2E/DX2 analytically  !
 ! A11   A(3,4,12)             107.6894         calculate D2E/DX2 analytically  !
 ! A12   A(5,4,12)             105.9665         calculate D2E/DX2 analytically  !
 ! A13   A(4,5,6)               94.3144         calculate D2E/DX2 analytically  !
 ! A14   A(4,5,8)              131.5432         calculate D2E/DX2 analytically  !
 ! A15   A(6,5,8)              134.0935         calculate D2E/DX2 analytically  !
 ! A16   A(1,6,5)               94.9693         calculate D2E/DX2 analytically  !
 ! A17   A(1,6,9)              131.7167         calculate D2E/DX2 analytically  !
 ! A18   A(5,6,9)              133.3139         calculate D2E/DX2 analytically  !
 ! A19   A(1,11,12)             89.9708         calculate D2E/DX2 analytically  !
 ! A20   A(1,11,14)            102.7029         calculate D2E/DX2 analytically  !
 ! A21   A(1,11,19)             85.2681         calculate D2E/DX2 analytically  !
 ! A22   A(12,11,14)           111.437          calculate D2E/DX2 analytically  !
 ! A23   A(12,11,19)           135.2572         calculate D2E/DX2 analytically  !
 ! A24   A(14,11,19)           113.0106         calculate D2E/DX2 analytically  !
 ! A25   A(4,12,11)             95.0935         calculate D2E/DX2 analytically  !
 ! A26   A(4,12,13)            109.5898         calculate D2E/DX2 analytically  !
 ! A27   A(4,12,18)             94.17           calculate D2E/DX2 analytically  !
 ! A28   A(11,12,13)           108.0856         calculate D2E/DX2 analytically  !
 ! A29   A(11,12,18)           134.1975         calculate D2E/DX2 analytically  !
 ! A30   A(13,12,18)           110.6439         calculate D2E/DX2 analytically  !
 ! A31   A(12,13,15)           107.1934         calculate D2E/DX2 analytically  !
 ! A32   A(11,14,15)           106.438          calculate D2E/DX2 analytically  !
 ! A33   A(13,15,14)           106.3891         calculate D2E/DX2 analytically  !
 ! A34   A(13,15,16)           109.0116         calculate D2E/DX2 analytically  !
 ! A35   A(13,15,17)           108.2851         calculate D2E/DX2 analytically  !
 ! A36   A(14,15,16)           108.0507         calculate D2E/DX2 analytically  !
 ! A37   A(14,15,17)           108.0056         calculate D2E/DX2 analytically  !
 ! A38   A(16,15,17)           116.6363         calculate D2E/DX2 analytically  !
 ! D1    D(6,1,2,3)            -74.3918         calculate D2E/DX2 analytically  !
 ! D2    D(6,1,2,10)           105.2932         calculate D2E/DX2 analytically  !
 ! D3    D(11,1,2,3)            73.9413         calculate D2E/DX2 analytically  !
 ! D4    D(11,1,2,10)         -106.3737         calculate D2E/DX2 analytically  !
 ! D5    D(2,1,6,5)             73.8968         calculate D2E/DX2 analytically  !
 ! D6    D(2,1,6,9)           -106.0123         calculate D2E/DX2 analytically  !
 ! D7    D(11,1,6,5)           -73.0925         calculate D2E/DX2 analytically  !
 ! D8    D(11,1,6,9)           106.9983         calculate D2E/DX2 analytically  !
 ! D9    D(2,1,11,12)          -91.5437         calculate D2E/DX2 analytically  !
 ! D10   D(2,1,11,14)          156.4608         calculate D2E/DX2 analytically  !
 ! D11   D(2,1,11,19)           43.915          calculate D2E/DX2 analytically  !
 ! D12   D(6,1,11,12)           71.5821         calculate D2E/DX2 analytically  !
 ! D13   D(6,1,11,14)          -40.4133         calculate D2E/DX2 analytically  !
 ! D14   D(6,1,11,19)         -152.9591         calculate D2E/DX2 analytically  !
 ! D15   D(1,2,3,4)             -0.7146         calculate D2E/DX2 analytically  !
 ! D16   D(1,2,3,7)           -179.6412         calculate D2E/DX2 analytically  !
 ! D17   D(10,2,3,4)           179.6058         calculate D2E/DX2 analytically  !
 ! D18   D(10,2,3,7)             0.6792         calculate D2E/DX2 analytically  !
 ! D19   D(2,3,4,5)             73.8386         calculate D2E/DX2 analytically  !
 ! D20   D(2,3,4,12)           -97.9538         calculate D2E/DX2 analytically  !
 ! D21   D(7,3,4,5)           -107.2034         calculate D2E/DX2 analytically  !
 ! D22   D(7,3,4,12)            81.0042         calculate D2E/DX2 analytically  !
 ! D23   D(3,4,5,6)            -74.3606         calculate D2E/DX2 analytically  !
 ! D24   D(3,4,5,8)            107.9614         calculate D2E/DX2 analytically  !
 ! D25   D(12,4,5,6)            97.5066         calculate D2E/DX2 analytically  !
 ! D26   D(12,4,5,8)           -80.1714         calculate D2E/DX2 analytically  !
 ! D27   D(3,4,12,11)           77.6838         calculate D2E/DX2 analytically  !
 ! D28   D(3,4,12,13)         -171.06           calculate D2E/DX2 analytically  !
 ! D29   D(3,4,12,18)          -57.4093         calculate D2E/DX2 analytically  !
 ! D30   D(5,4,12,11)          -97.5556         calculate D2E/DX2 analytically  !
 ! D31   D(5,4,12,13)           13.7006         calculate D2E/DX2 analytically  !
 ! D32   D(5,4,12,18)          127.3514         calculate D2E/DX2 analytically  !
 ! D33   D(4,5,6,1)              1.4252         calculate D2E/DX2 analytically  !
 ! D34   D(4,5,6,9)           -178.6679         calculate D2E/DX2 analytically  !
 ! D35   D(8,5,6,1)            179.0054         calculate D2E/DX2 analytically  !
 ! D36   D(8,5,6,9)             -1.0878         calculate D2E/DX2 analytically  !
 ! D37   D(1,11,12,4)            6.6056         calculate D2E/DX2 analytically  !
 ! D38   D(1,11,12,13)        -105.9275         calculate D2E/DX2 analytically  !
 ! D39   D(1,11,12,18)         107.4707         calculate D2E/DX2 analytically  !
 ! D40   D(14,11,12,4)         110.2585         calculate D2E/DX2 analytically  !
 ! D41   D(14,11,12,13)         -2.2746         calculate D2E/DX2 analytically  !
 ! D42   D(14,11,12,18)       -148.8764         calculate D2E/DX2 analytically  !
 ! D43   D(19,11,12,4)         -76.6348         calculate D2E/DX2 analytically  !
 ! D44   D(19,11,12,13)        170.8321         calculate D2E/DX2 analytically  !
 ! D45   D(19,11,12,18)         24.2304         calculate D2E/DX2 analytically  !
 ! D46   D(1,11,14,15)          92.9355         calculate D2E/DX2 analytically  !
 ! D47   D(12,11,14,15)         -2.11           calculate D2E/DX2 analytically  !
 ! D48   D(19,11,14,15)       -176.8434         calculate D2E/DX2 analytically  !
 ! D49   D(4,12,13,15)         -96.701          calculate D2E/DX2 analytically  !
 ! D50   D(11,12,13,15)          5.7354         calculate D2E/DX2 analytically  !
 ! D51   D(18,12,13,15)        160.792          calculate D2E/DX2 analytically  !
 ! D52   D(12,13,15,14)         -6.9022         calculate D2E/DX2 analytically  !
 ! D53   D(12,13,15,16)        109.3903         calculate D2E/DX2 analytically  !
 ! D54   D(12,13,15,17)       -122.7841         calculate D2E/DX2 analytically  !
 ! D55   D(11,14,15,13)          5.5332         calculate D2E/DX2 analytically  !
 ! D56   D(11,14,15,16)       -111.4021         calculate D2E/DX2 analytically  !
 ! D57   D(11,14,15,17)        121.6032         calculate D2E/DX2 analytically  !
 --------------------------------------------------------------------------------
 Trust Radius=1.00D-02 FncErr=1.00D-07 GrdErr=1.00D-07 EigMax=2.50D+02 EigMin=1.00D-04
 Number of steps in this run=    114 maximum allowed number of steps=    114.
 Search for a saddle point of order  1.
 GradGradGradGradGradGradGradGradGradGradGradGradGradGradGradGradGradGrad

                          Input orientation:                          
 ---------------------------------------------------------------------
 Center     Atomic      Atomic             Coordinates (Angstroms)
 Number     Number       Type             X           Y           Z
 ---------------------------------------------------------------------
      1          6           0       -0.422090    1.063184    0.805425
      2          6           0        0.824784    1.653268    1.092785
      3          6           0        0.956000    2.264199   -0.176300
      4          6           0       -0.277276    1.750624   -0.677926
      5          6           0       -1.699285    1.843008   -0.639173
      6          6           0       -1.811558    1.223412    0.624010
      7          1           0        1.703314    2.873401   -0.623021
      8          1           0       -2.401613    2.213986   -1.346618
      9          1           0       -2.641897    0.962413    1.239141
     10          1           0        1.438362    1.640873    1.963582
     11          6           0        0.322511   -0.706020   -0.669844
     12          6           0        0.137935    0.128133   -1.762197
     13          8           0       -1.029354   -0.296880   -2.448921
     14          8           0       -0.697705   -1.638649   -0.566507
     15          6           0       -1.636414   -1.348358   -1.653223
     16          1           0       -2.565451   -0.968817   -1.207971
     17          1           0       -1.721207   -2.246770   -2.277159
     18          1           0        0.803170    0.648546   -2.430281
     19          1           0        1.102049   -0.856706    0.049333
 ---------------------------------------------------------------------
                    Distance matrix (angstroms):
                    1          2          3          4          5
     1  C    0.000000
     2  C    1.409066   0.000000
     3  C    2.074934   1.414578   0.000000
     4  C    1.641303   2.087925   1.427009   0.000000
     5  C    2.079955   3.067018   2.728038   1.425534   0.000000
     6  C    1.410393   2.711978   3.063186   2.080148   1.411430
     7  H    3.136030   2.281344   1.062622   2.277362   3.555228
     8  H    3.142315   4.083470   3.556083   2.274788   1.063658
     9  H    2.264025   3.537878   4.079581   3.144497   2.278602
    10  H    2.266348   1.065326   2.280418   3.151670   4.081669
    11  C    2.420937   2.987537   3.076864   2.528816   3.253636
    12  C    2.789378   3.308885   2.783357   1.995124   2.752699
    13  O    3.579010   4.447986   3.957974   2.809683   2.881513
    14  O    3.042707   3.988476   4.256668   3.417067   3.623586
    15  C    3.651722   4.754767   4.685347   3.521669   3.349189
    16  H    3.574464   4.864411   4.890537   3.593335   2.996687
    17  H    4.705935   5.748816   5.650653   4.541106   4.405651
    18  H    3.484678   3.663594   2.777430   2.335099   3.301074
    19  H    2.565278   2.732331   3.132457   3.038028   3.950945
                    6          7          8          9         10
     6  C    0.000000
     7  H    4.078220   0.000000
     8  H    2.283151   4.220052   0.000000
     9  H    1.065819   5.099057   2.882763   0.000000
    10  H    3.539874   2.877471   5.102087   4.199243   0.000000
    11  C    3.154525   3.836804   4.050347   3.900719   3.699725
    12  C    3.270190   3.359260   3.312520   4.175107   4.226218
    13  O    3.516538   4.566406   3.066368   4.217572   5.414304
    14  O    3.293842   5.111427   4.284235   3.715612   4.660408
    15  C    3.439545   5.480725   3.656478   3.836200   5.609905
    16  H    2.954722   5.772968   3.190032   3.118309   5.735831
    17  H    4.524059   6.378061   4.607299   4.848802   6.563576
    18  H    4.061523   3.004401   3.727675   5.042981   4.549089
    19  H    3.625777   3.837613   4.863484   4.329200   3.164705
                   11         12         13         14         15
    11  C    0.000000
    12  C    1.386764   0.000000
    13  O    2.271574   1.419432   0.000000
    14  O    1.386116   2.291177   2.335341   0.000000
    15  C    2.284080   2.310890   1.451641   1.465058   0.000000
    16  H    2.949401   2.969640   2.085917   2.085336   1.097912
    17  H    3.022276   3.059699   2.076110   2.084154   1.097100
    18  H    2.272668   1.076895   2.062116   3.310218   3.247001
    19  H    1.071261   2.276195   3.331299   2.056651   3.261840
                   16         17         18         19
    16  H    0.000000
    17  H    1.867906   0.000000
    18  H    3.931604   3.844318   0.000000
    19  H    3.878652   3.913517   2.916092   0.000000
 Symmetry turned off by external request.
 Stoichiometry    C9H8O2
 Framework group  C1[X(C9H8O2)]
 Deg. of freedom    51
 Full point group                 C1      NOp   1
 Rotational constants (GHZ):           2.1881960           1.0770236           1.0330870
 Standard basis: VSTO-6G (5D, 7F)
    52 basis functions,   312 primitive gaussians,    52 cartesian basis functions
    28 alpha electrons       28 beta electrons
       nuclear repulsion energy       341.8680135055 Hartrees.
 Integral buffers will be    131072 words long.
 Regular integral format.
 Two-electron integral symmetry is turned off.
 Do NDO integrals.
 One-electron integrals computed using PRISM.
 NBasis=    52 RedAO= F EigKep=  0.00D+00  NBF=    52
 NBsUse=    52 1.00D-04 EigRej=  0.00D+00 NBFU=    52
 Simple Huckel Guess.
 Keep J ints in memory in canonical form, NReq=867036.
 Overlap will be assumed to be unity.
 Requested convergence on RMS density matrix=1.00D-08 within  32 cycles.
 Requested convergence on MAX density matrix=1.00D-06.
 Requested convergence on             energy=1.00D-06.
 No special actions if energy rises.
 SCF Done:  E(RPM6) =  0.199609560624     A.U. after   19 cycles
            NFock= 18  Conv=0.73D-08     -V/T= 1.0019
 QCSCF skips out because SCF is already converged.
 Range of M.O.s used for correlation:     1    52
 NBasis=    52 NAE=    28 NBE=    28 NFC=     0 NFV=     0
 NROrb=     52 NOA=    28 NOB=    28 NVA=    24 NVB=    24
 Symmetrizing basis deriv contribution to polar:
 IMax=3 JMax=2 DiffMx= 0.00D+00
 G2DrvN: will do    20 centers at a time, making    1 passes.
 Calling FoFCou, ICntrl=  3107 FMM=F I1Cent=   0 AccDes= 0.00D+00.
 End of G2Drv F.D. properties file   721 does not exist.
 End of G2Drv F.D. properties file   722 does not exist.
 End of G2Drv F.D. properties file   788 does not exist.
          IDoAtm=1111111111111111111
          Differentiating once with respect to nuclear coordinates.
          Electric field/nuclear overlap derivatives assumed to be zero.
 Keep J ints in memory in canonical form, NReq=869000.
          There are    60 degrees of freedom in the 1st order CPHF.  IDoFFX=5 NUNeed=    60.
 LinEq1:  Iter=  0 NonCon=    57 RMS=1.24D-02 Max=9.52D-02 NDo=    57
 AX will form    60 AO Fock derivatives at one time.
 LinEq1:  Iter=  1 NonCon=    57 RMS=2.31D-03 Max=2.88D-02 NDo=    60
 LinEq1:  Iter=  2 NonCon=    57 RMS=6.65D-04 Max=7.72D-03 NDo=    60
 LinEq1:  Iter=  3 NonCon=    57 RMS=1.96D-04 Max=2.48D-03 NDo=    60
 LinEq1:  Iter=  4 NonCon=    57 RMS=5.33D-05 Max=6.97D-04 NDo=    60
 LinEq1:  Iter=  5 NonCon=    57 RMS=1.41D-05 Max=1.17D-04 NDo=    60
 LinEq1:  Iter=  6 NonCon=    57 RMS=3.17D-06 Max=2.20D-05 NDo=    60
 LinEq1:  Iter=  7 NonCon=    57 RMS=6.73D-07 Max=5.63D-06 NDo=    60
 LinEq1:  Iter=  8 NonCon=    56 RMS=1.49D-07 Max=1.29D-06 NDo=    60
 LinEq1:  Iter=  9 NonCon=    32 RMS=2.90D-08 Max=2.95D-07 NDo=    60
 LinEq1:  Iter= 10 NonCon=     0 RMS=5.58D-09 Max=5.26D-08 NDo=    32
 Linear equations converged to 1.000D-08 1.000D-07 after    10 iterations.
 End of Minotr F.D. properties file   721 does not exist.
 End of Minotr F.D. properties file   722 does not exist.
 End of Minotr F.D. properties file   788 does not exist.

 **********************************************************************

            Population analysis using the SCF Density.

 **********************************************************************

 Alpha  occ. eigenvalues --   -1.19150  -1.16183  -1.07587  -1.01309  -0.97873
 Alpha  occ. eigenvalues --   -0.88774  -0.84147  -0.80514  -0.75865  -0.74865
 Alpha  occ. eigenvalues --   -0.66376  -0.64245  -0.60559  -0.59106  -0.58502
 Alpha  occ. eigenvalues --   -0.57079  -0.56266  -0.52509  -0.50659  -0.50203
 Alpha  occ. eigenvalues --   -0.49930  -0.47227  -0.46931  -0.43578  -0.36311
 Alpha  occ. eigenvalues --   -0.35686  -0.34050  -0.29834
 Alpha virt. eigenvalues --   -0.01396   0.00360   0.02252   0.04680   0.06741
 Alpha virt. eigenvalues --    0.06860   0.09762   0.09865   0.14554   0.14734
 Alpha virt. eigenvalues --    0.15314   0.15431   0.16166   0.17353   0.17710
 Alpha virt. eigenvalues --    0.18059   0.19449   0.19710   0.19932   0.21273
 Alpha virt. eigenvalues --    0.22059   0.22224   0.22568   0.23220
          Condensed to atoms (all electrons):
               1          2          3          4          5          6
     1  C    4.172276   0.000000   0.000000   0.000000   0.000000   0.000000
     2  C    0.000000   4.086331   0.000000   0.000000   0.000000   0.000000
     3  C    0.000000   0.000000   4.199967   0.000000   0.000000   0.000000
     4  C    0.000000   0.000000   0.000000   4.049215   0.000000   0.000000
     5  C    0.000000   0.000000   0.000000   0.000000   4.153017   0.000000
     6  C    0.000000   0.000000   0.000000   0.000000   0.000000   4.082960
     7  H    0.000000   0.000000   0.000000   0.000000   0.000000   0.000000
     8  H    0.000000   0.000000   0.000000   0.000000   0.000000   0.000000
     9  H    0.000000   0.000000   0.000000   0.000000   0.000000   0.000000
    10  H    0.000000   0.000000   0.000000   0.000000   0.000000   0.000000
    11  C    0.000000   0.000000   0.000000   0.000000   0.000000   0.000000
    12  C    0.000000   0.000000   0.000000   0.000000   0.000000   0.000000
    13  O    0.000000   0.000000   0.000000   0.000000   0.000000   0.000000
    14  O    0.000000   0.000000   0.000000   0.000000   0.000000   0.000000
    15  C    0.000000   0.000000   0.000000   0.000000   0.000000   0.000000
    16  H    0.000000   0.000000   0.000000   0.000000   0.000000   0.000000
    17  H    0.000000   0.000000   0.000000   0.000000   0.000000   0.000000
    18  H    0.000000   0.000000   0.000000   0.000000   0.000000   0.000000
    19  H    0.000000   0.000000   0.000000   0.000000   0.000000   0.000000
               7          8          9         10         11         12
     1  C    0.000000   0.000000   0.000000   0.000000   0.000000   0.000000
     2  C    0.000000   0.000000   0.000000   0.000000   0.000000   0.000000
     3  C    0.000000   0.000000   0.000000   0.000000   0.000000   0.000000
     4  C    0.000000   0.000000   0.000000   0.000000   0.000000   0.000000
     5  C    0.000000   0.000000   0.000000   0.000000   0.000000   0.000000
     6  C    0.000000   0.000000   0.000000   0.000000   0.000000   0.000000
     7  H    0.837661   0.000000   0.000000   0.000000   0.000000   0.000000
     8  H    0.000000   0.834953   0.000000   0.000000   0.000000   0.000000
     9  H    0.000000   0.000000   0.844497   0.000000   0.000000   0.000000
    10  H    0.000000   0.000000   0.000000   0.844689   0.000000   0.000000
    11  C    0.000000   0.000000   0.000000   0.000000   3.964842   0.000000
    12  C    0.000000   0.000000   0.000000   0.000000   0.000000   3.985278
    13  O    0.000000   0.000000   0.000000   0.000000   0.000000   0.000000
    14  O    0.000000   0.000000   0.000000   0.000000   0.000000   0.000000
    15  C    0.000000   0.000000   0.000000   0.000000   0.000000   0.000000
    16  H    0.000000   0.000000   0.000000   0.000000   0.000000   0.000000
    17  H    0.000000   0.000000   0.000000   0.000000   0.000000   0.000000
    18  H    0.000000   0.000000   0.000000   0.000000   0.000000   0.000000
    19  H    0.000000   0.000000   0.000000   0.000000   0.000000   0.000000
              13         14         15         16         17         18
     1  C    0.000000   0.000000   0.000000   0.000000   0.000000   0.000000
     2  C    0.000000   0.000000   0.000000   0.000000   0.000000   0.000000
     3  C    0.000000   0.000000   0.000000   0.000000   0.000000   0.000000
     4  C    0.000000   0.000000   0.000000   0.000000   0.000000   0.000000
     5  C    0.000000   0.000000   0.000000   0.000000   0.000000   0.000000
     6  C    0.000000   0.000000   0.000000   0.000000   0.000000   0.000000
     7  H    0.000000   0.000000   0.000000   0.000000   0.000000   0.000000
     8  H    0.000000   0.000000   0.000000   0.000000   0.000000   0.000000
     9  H    0.000000   0.000000   0.000000   0.000000   0.000000   0.000000
    10  H    0.000000   0.000000   0.000000   0.000000   0.000000   0.000000
    11  C    0.000000   0.000000   0.000000   0.000000   0.000000   0.000000
    12  C    0.000000   0.000000   0.000000   0.000000   0.000000   0.000000
    13  O    6.418667   0.000000   0.000000   0.000000   0.000000   0.000000
    14  O    0.000000   6.377218   0.000000   0.000000   0.000000   0.000000
    15  C    0.000000   0.000000   3.801472   0.000000   0.000000   0.000000
    16  H    0.000000   0.000000   0.000000   0.865664   0.000000   0.000000
    17  H    0.000000   0.000000   0.000000   0.000000   0.865296   0.000000
    18  H    0.000000   0.000000   0.000000   0.000000   0.000000   0.808927
    19  H    0.000000   0.000000   0.000000   0.000000   0.000000   0.000000
              19
     1  C    0.000000
     2  C    0.000000
     3  C    0.000000
     4  C    0.000000
     5  C    0.000000
     6  C    0.000000
     7  H    0.000000
     8  H    0.000000
     9  H    0.000000
    10  H    0.000000
    11  C    0.000000
    12  C    0.000000
    13  O    0.000000
    14  O    0.000000
    15  C    0.000000
    16  H    0.000000
    17  H    0.000000
    18  H    0.000000
    19  H    0.807070
 Mulliken charges:
               1
     1  C   -0.172276
     2  C   -0.086331
     3  C   -0.199967
     4  C   -0.049215
     5  C   -0.153017
     6  C   -0.082960
     7  H    0.162339
     8  H    0.165047
     9  H    0.155503
    10  H    0.155311
    11  C    0.035158
    12  C    0.014722
    13  O   -0.418667
    14  O   -0.377218
    15  C    0.198528
    16  H    0.134336
    17  H    0.134704
    18  H    0.191073
    19  H    0.192930
 Sum of Mulliken charges =   0.00000
 Mulliken charges with hydrogens summed into heavy atoms:
               1
     1  C   -0.172276
     2  C    0.068980
     3  C   -0.037628
     4  C   -0.049215
     5  C    0.012030
     6  C    0.072544
    11  C    0.228088
    12  C    0.205795
    13  O   -0.418667
    14  O   -0.377218
    15  C    0.467568
 APT charges:
               1
     1  C   -0.172276
     2  C   -0.086331
     3  C   -0.199967
     4  C   -0.049215
     5  C   -0.153017
     6  C   -0.082960
     7  H    0.162339
     8  H    0.165047
     9  H    0.155503
    10  H    0.155311
    11  C    0.035158
    12  C    0.014722
    13  O   -0.418667
    14  O   -0.377218
    15  C    0.198528
    16  H    0.134336
    17  H    0.134704
    18  H    0.191073
    19  H    0.192930
 Sum of APT charges =   0.00000
 APT charges with hydrogens summed into heavy atoms:
               1
     1  C   -0.172276
     2  C    0.068980
     3  C   -0.037628
     4  C   -0.049215
     5  C    0.012030
     6  C    0.072544
    11  C    0.228088
    12  C    0.205795
    13  O   -0.418667
    14  O   -0.377218
    15  C    0.467568
 Charge=              0.0000 electrons
 Dipole moment (field-independent basis, Debye):
    X=              0.2438    Y=             -0.3203    Z=             -0.0764  Tot=              0.4097
 N-N= 3.418680135055D+02 E-N=-5.399494487712D+02  KE=-1.064809898375D+02
  Exact polarizability:       0.000       0.000       0.000       0.000       0.000       0.000
 Approx polarizability:      79.480       8.330      72.427       7.540     -12.952      79.491
 Calling FoFJK, ICntrl=    100127 FMM=F ISym2X=0 I1Cent= 0 IOpClX= 0 NMat=1 NMatS=1 NMatT=0.
 -------------------------------------------------------------------
 Center     Atomic                   Forces (Hartrees/Bohr)
 Number     Number              X              Y              Z
 -------------------------------------------------------------------
      1        6           0.000579189    0.003285885   -0.003503642
      2        6           0.000050084    0.000403253   -0.000939710
      3        6           0.000160251   -0.000314944    0.001001582
      4        6          -0.000084110   -0.000090363    0.000044034
      5        6          -0.000179017    0.000044992    0.000299260
      6        6          -0.000724325   -0.002475979    0.002413522
      7        1          -0.000012863    0.000001487    0.000033485
      8        1           0.000000626   -0.000022102   -0.000022345
      9        1          -0.000001735    0.000036593    0.000004457
     10        1           0.000015588   -0.000012809   -0.000053998
     11        6           0.001814786   -0.002135805    0.003521950
     12        6           0.000105793   -0.000400925    0.000111034
     13        8           0.000123332    0.000123049   -0.000122096
     14        8          -0.001885012    0.001512985   -0.003003371
     15        6           0.000039804   -0.000121823    0.000222079
     16        1           0.000015448    0.000017583    0.000023469
     17        1          -0.000026458    0.000009943   -0.000006513
     18        1          -0.000056902    0.000047528   -0.000017402
     19        1           0.000065520    0.000091452   -0.000005794
 -------------------------------------------------------------------
 Cartesian Forces:  Max     0.003521950 RMS     0.001136706
 FormGI is forming the generalized inverse of G from B-inverse, IUseBI=4.

 GradGradGradGradGradGradGradGradGradGradGradGradGradGradGradGradGradGrad
 Berny optimization.
 Internal  Forces:  Max     0.002494087 RMS     0.000467271
 Search for a saddle point.
 Step number   1 out of a maximum of  114
 All quantities printed in internal units (Hartrees-Bohrs-Radians)
 Swapping is turned off.
 Second derivative matrix not updated -- analytic derivatives used.
 ITU=  0
     Eigenvalues ---   -0.05847   0.00152   0.00417   0.00511   0.00747
     Eigenvalues ---    0.00758   0.01071   0.01350   0.01756   0.01846
     Eigenvalues ---    0.01976   0.02056   0.02967   0.03360   0.03695
     Eigenvalues ---    0.03890   0.04599   0.04784   0.05634   0.06878
     Eigenvalues ---    0.07133   0.07201   0.08048   0.08187   0.08262
     Eigenvalues ---    0.08351   0.08557   0.08829   0.09611   0.12623
     Eigenvalues ---    0.19145   0.22222   0.22938   0.23725   0.25095
     Eigenvalues ---    0.25988   0.26497   0.26823   0.27194   0.27577
     Eigenvalues ---    0.27773   0.28967   0.31241   0.33014   0.33764
     Eigenvalues ---    0.37527   0.38140   0.43563   0.49433   0.53517
     Eigenvalues ---    0.69453
 Eigenvectors required to have negative eigenvalues:
                          R9        R3        A10       A1        D42
   1                    0.70648   0.47619   0.20143   0.15541  -0.13818
                          D39       R13       A12       D51       R6
   1                   -0.12425  -0.12210  -0.11606   0.10250  -0.09813
 RFO step:  Lambda0=7.302486318D-08 Lambda=-1.44442662D-03.
 Linear search not attempted -- option 19 set.
 Maximum step size (   0.010) exceeded in Quadratic search.
    -- Step size scaled by   0.063
 Iteration  1 RMS(Cart)=  0.00527291 RMS(Int)=  0.00001085
 Iteration  2 RMS(Cart)=  0.00001611 RMS(Int)=  0.00000324
 Iteration  3 RMS(Cart)=  0.00000000 RMS(Int)=  0.00000324
 Variable       Old X    -DE/DX   Delta X   Delta X   Delta X     New X
                                 (Linear)    (Quad)   (Total)
    R1        2.66275  -0.00004   0.00000   0.00022   0.00022   2.66297
    R2        2.66526  -0.00002   0.00000  -0.00013  -0.00013   2.66513
    R3        4.57491   0.00010   0.00000  -0.00635  -0.00635   4.56856
    R4        2.67317  -0.00146   0.00000  -0.00026  -0.00026   2.67290
    R5        2.01317  -0.00004   0.00000  -0.00002  -0.00002   2.01315
    R6        2.69666   0.00020   0.00000  -0.00004  -0.00004   2.69661
    R7        2.00806  -0.00002   0.00000   0.00006   0.00006   2.00812
    R8        2.69387   0.00035   0.00000  -0.00015  -0.00015   2.69372
    R9        3.77024   0.00012   0.00000   0.00349   0.00349   3.77373
   R10        2.66722   0.00012   0.00000   0.00039   0.00039   2.66761
   R11        2.01002   0.00001   0.00000   0.00000   0.00000   2.01002
   R12        2.01411  -0.00001   0.00000  -0.00007  -0.00007   2.01404
   R13        2.62060   0.00046   0.00000   0.00011   0.00011   2.62071
   R14        2.61938   0.00052   0.00000   0.00056   0.00056   2.61994
   R15        2.02439   0.00003   0.00000  -0.00015  -0.00015   2.02425
   R16        2.68234   0.00000   0.00000  -0.00035  -0.00035   2.68199
   R17        2.03504   0.00000   0.00000  -0.00012  -0.00012   2.03492
   R18        2.74320  -0.00053   0.00000  -0.00006  -0.00006   2.74315
   R19        2.76856  -0.00061   0.00000  -0.00040  -0.00040   2.76816
   R20        2.07475   0.00000   0.00000   0.00001   0.00001   2.07476
   R21        2.07322   0.00000   0.00000   0.00003   0.00003   2.07325
    A1        2.58758   0.00090   0.00000   0.00099   0.00099   2.58858
    A2        1.72961  -0.00015   0.00000   0.00328   0.00328   1.73289
    A3        1.88351  -0.00037   0.00000  -0.00298  -0.00299   1.88052
    A4        1.65087   0.00007   0.00000  -0.00017  -0.00017   1.65070
    A5        2.30700  -0.00001   0.00000   0.00001   0.00001   2.30701
    A6        2.32530  -0.00006   0.00000   0.00016   0.00016   2.32546
    A7        1.65065  -0.00003   0.00000  -0.00004  -0.00005   1.65060
    A8        2.33227   0.00000   0.00000   0.00006   0.00006   2.33233
    A9        2.30009   0.00003   0.00000  -0.00002  -0.00002   2.30008
   A10        2.54851   0.00030   0.00000   0.00083   0.00083   2.54934
   A11        1.87954  -0.00011   0.00000  -0.00156  -0.00156   1.87797
   A12        1.84946  -0.00019   0.00000   0.00049   0.00049   1.84996
   A13        1.64610  -0.00013   0.00000   0.00010   0.00010   1.64620
   A14        2.29586   0.00005   0.00000  -0.00001  -0.00001   2.29586
   A15        2.34037   0.00008   0.00000  -0.00009  -0.00009   2.34028
   A16        1.65753  -0.00043   0.00000  -0.00054  -0.00054   1.65698
   A17        2.29889   0.00023   0.00000   0.00036   0.00036   2.29925
   A18        2.32677   0.00020   0.00000   0.00019   0.00019   2.32695
   A19        1.57029  -0.00030   0.00000   0.00075   0.00074   1.57102
   A20        1.79250   0.00021   0.00000   0.00217   0.00218   1.79469
   A21        1.48821   0.00013   0.00000  -0.00106  -0.00105   1.48715
   A22        1.94494  -0.00135   0.00000  -0.00099  -0.00099   1.94395
   A23        2.36068  -0.00003   0.00000   0.00057   0.00057   2.36125
   A24        1.97241   0.00139   0.00000   0.00027   0.00027   1.97268
   A25        1.65970  -0.00008   0.00000   0.00036   0.00035   1.66005
   A26        1.91270  -0.00026   0.00000  -0.00184  -0.00184   1.91087
   A27        1.64358   0.00016   0.00000  -0.00017  -0.00016   1.64342
   A28        1.88645   0.00046   0.00000   0.00064   0.00064   1.88709
   A29        2.34219   0.00006   0.00000   0.00013   0.00013   2.34232
   A30        1.93110  -0.00044   0.00000  -0.00008  -0.00008   1.93102
   A31        1.87088   0.00020   0.00000  -0.00011  -0.00011   1.87077
   A32        1.85769   0.00107   0.00000   0.00059   0.00059   1.85828
   A33        1.85684  -0.00037   0.00000  -0.00013  -0.00013   1.85671
   A34        1.90261   0.00005   0.00000   0.00004   0.00004   1.90265
   A35        1.88993   0.00011   0.00000   0.00002   0.00002   1.88995
   A36        1.88584   0.00003   0.00000   0.00011   0.00011   1.88595
   A37        1.88505   0.00014   0.00000   0.00007   0.00007   1.88512
   A38        2.03569   0.00000   0.00000  -0.00011  -0.00011   2.03558
    D1       -1.29838  -0.00038   0.00000  -0.00051  -0.00052  -1.29890
    D2        1.83771  -0.00050   0.00000  -0.00049  -0.00049   1.83722
    D3        1.29052   0.00048   0.00000   0.00291   0.00291   1.29343
    D4       -1.85657   0.00037   0.00000   0.00294   0.00294  -1.85363
    D5        1.28974   0.00021   0.00000   0.00052   0.00052   1.29027
    D6       -1.85026   0.00047   0.00000   0.00043   0.00043  -1.84984
    D7       -1.27571  -0.00076   0.00000  -0.00406  -0.00405  -1.27975
    D8        1.86747  -0.00050   0.00000  -0.00415  -0.00414   1.86333
    D9       -1.59774   0.00014   0.00000   0.00657   0.00658  -1.59116
   D10        2.73076   0.00159   0.00000   0.00721   0.00722   2.73797
   D11        0.76646   0.00014   0.00000   0.00715   0.00715   0.77361
   D12        1.24934   0.00105   0.00000   0.00904   0.00904   1.25838
   D13       -0.70535   0.00249   0.00000   0.00968   0.00968  -0.69567
   D14       -2.66964   0.00104   0.00000   0.00961   0.00961  -2.66003
   D15       -0.01247  -0.00025   0.00000  -0.00009  -0.00009  -0.01256
   D16       -3.13533  -0.00016   0.00000   0.00011   0.00011  -3.13522
   D17        3.13471  -0.00014   0.00000  -0.00011  -0.00011   3.13460
   D18        0.01185  -0.00004   0.00000   0.00008   0.00008   0.01194
   D19        1.28873   0.00001   0.00000  -0.00024  -0.00024   1.28848
   D20       -1.70962   0.00000   0.00000   0.00286   0.00287  -1.70675
   D21       -1.87105  -0.00009   0.00000  -0.00043  -0.00043  -1.87148
   D22        1.41379  -0.00009   0.00000   0.00267   0.00268   1.41647
   D23       -1.29784  -0.00001   0.00000   0.00031   0.00031  -1.29753
   D24        1.88428   0.00007   0.00000   0.00031   0.00031   1.88459
   D25        1.70181   0.00000   0.00000  -0.00286  -0.00287   1.69895
   D26       -1.39925   0.00008   0.00000  -0.00286  -0.00286  -1.40212
   D27        1.35584   0.00027   0.00000   0.00686   0.00686   1.36270
   D28       -2.98556   0.00067   0.00000   0.00727   0.00727  -2.97829
   D29       -1.00198   0.00020   0.00000   0.00669   0.00669  -0.99529
   D30       -1.70267   0.00023   0.00000   0.00856   0.00856  -1.69411
   D31        0.23912   0.00063   0.00000   0.00898   0.00898   0.24810
   D32        2.22270   0.00015   0.00000   0.00839   0.00839   2.23109
   D33        0.02488   0.00028   0.00000  -0.00006  -0.00006   0.02482
   D34       -3.11834   0.00001   0.00000   0.00004   0.00004  -3.11830
   D35        3.12423   0.00019   0.00000  -0.00005  -0.00005   3.12418
   D36       -0.01899  -0.00008   0.00000   0.00005   0.00005  -0.01894
   D37        0.11529  -0.00024   0.00000  -0.00500  -0.00501   0.11028
   D38       -1.84878  -0.00004   0.00000  -0.00331  -0.00331  -1.85210
   D39        1.87572  -0.00009   0.00000  -0.00484  -0.00484   1.87087
   D40        1.92437  -0.00027   0.00000  -0.00245  -0.00245   1.92192
   D41       -0.03970  -0.00006   0.00000  -0.00076  -0.00076  -0.04046
   D42       -2.59838  -0.00011   0.00000  -0.00229  -0.00229  -2.60067
   D43       -1.33753  -0.00013   0.00000  -0.00418  -0.00418  -1.34171
   D44        2.98158   0.00008   0.00000  -0.00249  -0.00249   2.97909
   D45        0.42290   0.00003   0.00000  -0.00402  -0.00402   0.41888
   D46        1.62203  -0.00052   0.00000   0.00216   0.00215   1.62418
   D47       -0.03683   0.00008   0.00000   0.00069   0.00069  -0.03613
   D48       -3.08650   0.00003   0.00000   0.00197   0.00197  -3.08453
   D49       -1.68775   0.00003   0.00000   0.00056   0.00057  -1.68718
   D50        0.10010   0.00003   0.00000   0.00049   0.00049   0.10059
   D51        2.80635   0.00017   0.00000   0.00164   0.00164   2.80799
   D52       -0.12047   0.00007   0.00000  -0.00004  -0.00003  -0.12050
   D53        1.90922  -0.00007   0.00000   0.00004   0.00004   1.90927
   D54       -2.14299   0.00004   0.00000  -0.00006  -0.00006  -2.14304
   D55        0.09657  -0.00007   0.00000  -0.00037  -0.00037   0.09620
   D56       -1.94433   0.00005   0.00000  -0.00040  -0.00040  -1.94473
   D57        2.12238  -0.00005   0.00000  -0.00038  -0.00038   2.12200
         Item               Value     Threshold  Converged?
 Maximum Force            0.002494     0.000015     NO 
 RMS     Force            0.000467     0.000010     NO 
 Maximum Displacement     0.016711     0.000060     NO 
 RMS     Displacement     0.005273     0.000040     NO 
 Predicted change in Energy=-8.824044D-05
 GradGradGradGradGradGradGradGradGradGradGradGradGradGradGradGradGradGrad

                          Input orientation:                          
 ---------------------------------------------------------------------
 Center     Atomic      Atomic             Coordinates (Angstroms)
 Number     Number       Type             X           Y           Z
 ---------------------------------------------------------------------
      1          6           0       -0.418765    1.063780    0.805041
      2          6           0        0.827484    1.656585    1.090071
      3          6           0        0.954681    2.267806   -0.179130
      4          6           0       -0.278419    1.751381   -0.678189
      5          6           0       -1.700558    1.839451   -0.637119
      6          6           0       -1.809039    1.219568    0.626485
      7          1           0        1.699728    2.878648   -0.627472
      8          1           0       -2.405159    2.208227   -1.343455
      9          1           0       -2.637490    0.956059    1.243028
     10          1           0        1.442793    1.645407    1.959648
     11          6           0        0.319044   -0.707833   -0.665236
     12          6           0        0.141226    0.125649   -1.759294
     13          8           0       -1.023849   -0.296513   -2.451133
     14          8           0       -0.705208   -1.636905   -0.565880
     15          6           0       -1.637841   -1.345223   -1.657158
     16          1           0       -2.567889   -0.962437   -1.216814
     17          1           0       -1.722402   -2.244109   -2.280468
     18          1           0        0.810452    0.644685   -2.424354
     19          1           0        1.095488   -0.861380    0.056564
 ---------------------------------------------------------------------
                    Distance matrix (angstroms):
                    1          2          3          4          5
     1  C    0.000000
     2  C    1.409183   0.000000
     3  C    2.074759   1.414440   0.000000
     4  C    1.640873   2.087762   1.426987   0.000000
     5  C    2.079539   3.067184   2.728285   1.425455   0.000000
     6  C    1.410324   2.712406   3.063653   2.080335   1.411637
     7  H    3.135897   2.281272   1.062653   2.277360   3.555554
     8  H    3.141903   4.083667   3.556365   2.274712   1.063658
     9  H    2.264106   3.538386   4.080062   3.144650   2.278854
    10  H    2.266452   1.065315   2.280352   3.151505   4.081851
    11  C    2.417579   2.988325   3.081358   2.530783   3.250882
    12  C    2.787381   3.306599   2.783428   1.996971   2.754734
    13  O    3.580390   4.447713   3.956301   2.809425   2.882867
    14  O    3.042232   3.992292   4.260467   3.416905   3.616745
    15  C    3.654020   4.757725   4.686120   3.520705   3.344631
    16  H    3.579412   4.869246   4.890784   3.591184   2.989797
    17  H    4.707650   5.751336   5.651529   4.540520   4.401878
    18  H    3.480748   3.657241   2.774231   2.336559   3.305577
    19  H    2.561137   2.734979   3.141208   3.042039   3.948867
                    6          7          8          9         10
     6  C    0.000000
     7  H    4.078774   0.000000
     8  H    2.283302   4.220450   0.000000
     9  H    1.065783   5.099664   2.883018   0.000000
    10  H    3.540208   2.877515   5.102352   4.199697   0.000000
    11  C    3.148357   3.843249   4.047798   3.892441   3.700077
    12  C    3.269882   3.359904   3.315740   4.174300   4.223065
    13  O    3.519482   4.563470   3.067359   4.221326   5.413905
    14  O    3.286276   5.116417   4.275452   3.705310   4.665380
    15  C    3.438384   5.480940   3.648861   3.834876   5.613863
    16  H    2.955461   5.771812   3.177362   3.120303   5.742503
    17  H    4.522714   6.378559   4.600809   4.847008   6.566992
    18  H    4.061999   3.001698   3.735393   5.043307   4.541010
    19  H    3.618208   3.849782   4.861797   4.318090   3.166438
                   11         12         13         14         15
    11  C    0.000000
    12  C    1.386822   0.000000
    13  O    2.271998   1.419247   0.000000
    14  O    1.386412   2.290694   2.335028   0.000000
    15  C    2.284639   2.310622   1.451611   1.464845   0.000000
    16  H    2.950160   2.969431   2.085919   2.085234   1.097915
    17  H    3.022684   3.059491   2.076110   2.084032   1.097116
    18  H    2.272726   1.076831   2.061851   3.310105   3.246915
    19  H    1.071185   2.276441   3.331547   2.057032   3.262213
                   16         17         18         19
    16  H    0.000000
    17  H    1.867857   0.000000
    18  H    3.931181   3.844630   0.000000
    19  H    3.879695   3.913331   2.916236   0.000000
 Symmetry turned off by external request.
 Stoichiometry    C9H8O2
 Framework group  C1[X(C9H8O2)]
 Deg. of freedom    51
 Full point group                 C1      NOp   1
 Rotational constants (GHZ):           2.1900741           1.0764371           1.0334815
 Standard basis: VSTO-6G (5D, 7F)
    52 basis functions,   312 primitive gaussians,    52 cartesian basis functions
    28 alpha electrons       28 beta electrons
       nuclear repulsion energy       341.8826278879 Hartrees.
 Integral buffers will be    131072 words long.
 Regular integral format.
 Two-electron integral symmetry is turned off.
 Do NDO integrals.
 One-electron integrals computed using PRISM.
 NBasis=    52 RedAO= F EigKep=  0.00D+00  NBF=    52
 NBsUse=    52 1.00D-04 EigRej=  0.00D+00 NBFU=    52
 Initial guess from the checkpoint file:  "C:\Users\al6323\OneDrive - Imperial College London\Desktop\TSR20251113\TS(Berny)_PM6_endo_unfreeze.chk"
 B after Tr=    -0.000456    0.000203    0.000297
         Rot=    1.000000    0.000080    0.000101    0.000157 Ang=   0.02 deg.
 Keep J ints in memory in canonical form, NReq=867036.
 Overlap will be assumed to be unity.
 Requested convergence on RMS density matrix=1.00D-08 within  32 cycles.
 Requested convergence on MAX density matrix=1.00D-06.
 Requested convergence on             energy=1.00D-06.
 No special actions if energy rises.
 SCF Done:  E(RPM6) =  0.199521323687     A.U. after   14 cycles
            NFock= 13  Conv=0.91D-08     -V/T= 1.0019
 QCSCF skips out because SCF is already converged.
 Calling FoFJK, ICntrl=      2127 FMM=F ISym2X=0 I1Cent= 0 IOpClX= 0 NMat=1 NMatS=1 NMatT=0.
 -------------------------------------------------------------------
 Center     Atomic                   Forces (Hartrees/Bohr)
 Number     Number              X              Y              Z
 -------------------------------------------------------------------
      1        6           0.000546120    0.003080177   -0.003311667
      2        6           0.000043032    0.000383292   -0.000884924
      3        6           0.000155479   -0.000291470    0.000930231
      4        6          -0.000090079   -0.000068925    0.000031159
      5        6          -0.000167108    0.000032749    0.000294443
      6        6          -0.000671376   -0.002327738    0.002284025
      7        1          -0.000013027    0.000003146    0.000032100
      8        1           0.000000790   -0.000018328   -0.000019752
      9        1          -0.000001931    0.000031224    0.000002363
     10        1           0.000015501   -0.000013955   -0.000051425
     11        6           0.001670585   -0.001996073    0.003332575
     12        6           0.000110519   -0.000398137    0.000096884
     13        8           0.000121506    0.000117965   -0.000122974
     14        8          -0.001759699    0.001432466   -0.002828679
     15        6           0.000036538   -0.000114771    0.000208379
     16        1           0.000014063    0.000016013    0.000021979
     17        1          -0.000024550    0.000009510   -0.000006365
     18        1          -0.000045726    0.000052837   -0.000002698
     19        1           0.000059363    0.000070019   -0.000005655
 -------------------------------------------------------------------
 Cartesian Forces:  Max     0.003332575 RMS     0.001069584

 GradGradGradGradGradGradGradGradGradGradGradGradGradGradGradGradGradGrad
 Berny optimization.
 FormGI is forming the generalized inverse of G from B-inverse, IUseBI=4.
 Internal  Forces:  Max     0.002350811 RMS     0.000440420
 Search for a saddle point.
 Step number   2 out of a maximum of  114
 All quantities printed in internal units (Hartrees-Bohrs-Radians)
 Swapping is turned off.
 Update second derivatives using D2CorX and points    1    2
 ITU=  0  0
     Eigenvalues ---   -0.05847   0.00154   0.00417   0.00511   0.00747
     Eigenvalues ---    0.00758   0.01071   0.01350   0.01756   0.01845
     Eigenvalues ---    0.01976   0.02056   0.02966   0.03360   0.03695
     Eigenvalues ---    0.03890   0.04599   0.04784   0.05634   0.06878
     Eigenvalues ---    0.07133   0.07201   0.08048   0.08187   0.08262
     Eigenvalues ---    0.08351   0.08557   0.08829   0.09611   0.12623
     Eigenvalues ---    0.19145   0.22222   0.22938   0.23725   0.25095
     Eigenvalues ---    0.25988   0.26497   0.26823   0.27194   0.27577
     Eigenvalues ---    0.27773   0.28967   0.31241   0.33014   0.33764
     Eigenvalues ---    0.37527   0.38140   0.43563   0.49433   0.53517
     Eigenvalues ---    0.69453
 Eigenvectors required to have negative eigenvalues:
                          R9        R3        A10       A1        D42
   1                    0.70665   0.47601   0.20139   0.15554  -0.13825
                          D39       R13       A12       D51       R6
   1                   -0.12416  -0.12215  -0.11617   0.10255  -0.09795
 RFO step:  Lambda0=6.888191203D-08 Lambda=-1.34078586D-03.
 Linear search not attempted -- option 19 set.
 Maximum step size (   0.010) exceeded in Quadratic search.
    -- Step size scaled by   0.063
 Iteration  1 RMS(Cart)=  0.00518249 RMS(Int)=  0.00001052
 Iteration  2 RMS(Cart)=  0.00001564 RMS(Int)=  0.00000313
 Iteration  3 RMS(Cart)=  0.00000000 RMS(Int)=  0.00000313
 Variable       Old X    -DE/DX   Delta X   Delta X   Delta X     New X
                                 (Linear)    (Quad)   (Total)
    R1        2.66297  -0.00004   0.00000   0.00023   0.00023   2.66320
    R2        2.66513  -0.00002   0.00000  -0.00011  -0.00012   2.66501
    R3        4.56856   0.00009   0.00000  -0.00647  -0.00647   4.56210
    R4        2.67290  -0.00137   0.00000  -0.00025  -0.00025   2.67265
    R5        2.01315  -0.00003   0.00000  -0.00002  -0.00002   2.01313
    R6        2.69661   0.00019   0.00000  -0.00005  -0.00005   2.69656
    R7        2.00812  -0.00002   0.00000   0.00006   0.00006   2.00818
    R8        2.69372   0.00033   0.00000  -0.00015  -0.00015   2.69357
    R9        3.77373   0.00012   0.00000   0.00353   0.00353   3.77726
   R10        2.66761   0.00012   0.00000   0.00037   0.00037   2.66798
   R11        2.01002   0.00001   0.00000   0.00000   0.00000   2.01002
   R12        2.01404   0.00000   0.00000  -0.00006  -0.00006   2.01397
   R13        2.62071   0.00043   0.00000   0.00010   0.00010   2.62081
   R14        2.61994   0.00048   0.00000   0.00055   0.00055   2.62049
   R15        2.02425   0.00003   0.00000  -0.00014  -0.00014   2.02411
   R16        2.68199   0.00000   0.00000  -0.00035  -0.00035   2.68163
   R17        2.03492   0.00000   0.00000  -0.00012  -0.00012   2.03479
   R18        2.74315  -0.00050   0.00000  -0.00005  -0.00005   2.74310
   R19        2.76816  -0.00057   0.00000  -0.00039  -0.00039   2.76777
   R20        2.07476   0.00000   0.00000   0.00000   0.00000   2.07476
   R21        2.07325   0.00000   0.00000   0.00003   0.00003   2.07328
    A1        2.58858   0.00085   0.00000   0.00092   0.00092   2.58950
    A2        1.73289  -0.00013   0.00000   0.00324   0.00324   1.73613
    A3        1.88052  -0.00035   0.00000  -0.00291  -0.00292   1.87760
    A4        1.65070   0.00007   0.00000  -0.00015  -0.00015   1.65055
    A5        2.30701  -0.00001   0.00000   0.00000   0.00000   2.30702
    A6        2.32546  -0.00006   0.00000   0.00015   0.00015   2.32561
    A7        1.65060  -0.00003   0.00000  -0.00005  -0.00005   1.65055
    A8        2.33233   0.00000   0.00000   0.00006   0.00006   2.33240
    A9        2.30008   0.00003   0.00000  -0.00001  -0.00001   2.30006
   A10        2.54934   0.00028   0.00000   0.00080   0.00080   2.55014
   A11        1.87797  -0.00010   0.00000  -0.00154  -0.00154   1.87643
   A12        1.84996  -0.00018   0.00000   0.00049   0.00049   1.85045
   A13        1.64620  -0.00012   0.00000   0.00009   0.00009   1.64629
   A14        2.29586   0.00005   0.00000   0.00000   0.00000   2.29585
   A15        2.34028   0.00007   0.00000  -0.00009  -0.00009   2.34019
   A16        1.65698  -0.00041   0.00000  -0.00052  -0.00052   1.65647
   A17        2.29925   0.00021   0.00000   0.00034   0.00034   2.29959
   A18        2.32695   0.00019   0.00000   0.00018   0.00018   2.32713
   A19        1.57102  -0.00028   0.00000   0.00076   0.00075   1.57178
   A20        1.79469   0.00020   0.00000   0.00215   0.00216   1.79685
   A21        1.48715   0.00013   0.00000  -0.00098  -0.00098   1.48618
   A22        1.94395  -0.00127   0.00000  -0.00096  -0.00096   1.94299
   A23        2.36125  -0.00002   0.00000   0.00056   0.00056   2.36182
   A24        1.97268   0.00130   0.00000   0.00023   0.00023   1.97292
   A25        1.66005  -0.00008   0.00000   0.00031   0.00030   1.66035
   A26        1.91087  -0.00025   0.00000  -0.00179  -0.00179   1.90908
   A27        1.64342   0.00015   0.00000  -0.00019  -0.00018   1.64323
   A28        1.88709   0.00043   0.00000   0.00063   0.00063   1.88772
   A29        2.34232   0.00005   0.00000   0.00013   0.00013   2.34245
   A30        1.93102  -0.00041   0.00000  -0.00004  -0.00004   1.93098
   A31        1.87077   0.00019   0.00000  -0.00011  -0.00011   1.87065
   A32        1.85828   0.00101   0.00000   0.00056   0.00056   1.85884
   A33        1.85671  -0.00035   0.00000  -0.00012  -0.00012   1.85658
   A34        1.90265   0.00004   0.00000   0.00003   0.00003   1.90268
   A35        1.88995   0.00011   0.00000   0.00002   0.00002   1.88997
   A36        1.88595   0.00003   0.00000   0.00011   0.00011   1.88606
   A37        1.88512   0.00013   0.00000   0.00007   0.00007   1.88519
   A38        2.03558   0.00000   0.00000  -0.00011  -0.00011   2.03547
    D1       -1.29890  -0.00036   0.00000  -0.00048  -0.00048  -1.29938
    D2        1.83722  -0.00047   0.00000  -0.00044  -0.00044   1.83678
    D3        1.29343   0.00045   0.00000   0.00291   0.00291   1.29634
    D4       -1.85363   0.00035   0.00000   0.00295   0.00295  -1.85068
    D5        1.29027   0.00020   0.00000   0.00050   0.00050   1.29077
    D6       -1.84984   0.00045   0.00000   0.00037   0.00037  -1.84947
    D7       -1.27975  -0.00071   0.00000  -0.00400  -0.00400  -1.28375
    D8        1.86333  -0.00047   0.00000  -0.00413  -0.00413   1.85920
    D9       -1.59116   0.00014   0.00000   0.00647   0.00647  -1.58470
   D10        2.73797   0.00150   0.00000   0.00707   0.00707   2.74504
   D11        0.77361   0.00014   0.00000   0.00703   0.00703   0.78064
   D12        1.25838   0.00099   0.00000   0.00886   0.00886   1.26724
   D13       -0.69567   0.00235   0.00000   0.00946   0.00946  -0.68621
   D14       -2.66003   0.00099   0.00000   0.00942   0.00942  -2.65061
   D15       -0.01256  -0.00024   0.00000  -0.00008  -0.00008  -0.01264
   D16       -3.13522  -0.00015   0.00000   0.00011   0.00011  -3.13511
   D17        3.13460  -0.00013   0.00000  -0.00012  -0.00012   3.13448
   D18        0.01194  -0.00004   0.00000   0.00007   0.00007   0.01200
   D19        1.28848   0.00001   0.00000  -0.00021  -0.00021   1.28828
   D20       -1.70675   0.00001   0.00000   0.00290   0.00291  -1.70384
   D21       -1.87148  -0.00008   0.00000  -0.00039  -0.00039  -1.87187
   D22        1.41647  -0.00008   0.00000   0.00273   0.00273   1.41920
   D23       -1.29753  -0.00001   0.00000   0.00029   0.00028  -1.29724
   D24        1.88459   0.00007   0.00000   0.00026   0.00027   1.88486
   D25        1.69895  -0.00001   0.00000  -0.00289  -0.00290   1.69604
   D26       -1.40212   0.00007   0.00000  -0.00292  -0.00292  -1.40504
   D27        1.36270   0.00026   0.00000   0.00673   0.00673   1.36942
   D28       -2.97829   0.00064   0.00000   0.00712   0.00712  -2.97117
   D29       -0.99529   0.00020   0.00000   0.00658   0.00658  -0.98871
   D30       -1.69411   0.00022   0.00000   0.00843   0.00843  -1.68567
   D31        0.24810   0.00060   0.00000   0.00883   0.00883   0.25692
   D32        2.23109   0.00016   0.00000   0.00828   0.00828   2.23938
   D33        0.02482   0.00026   0.00000  -0.00008  -0.00008   0.02474
   D34       -3.11830   0.00001   0.00000   0.00005   0.00006  -3.11824
   D35        3.12418   0.00017   0.00000  -0.00005  -0.00006   3.12412
   D36       -0.01894  -0.00008   0.00000   0.00008   0.00008  -0.01886
   D37        0.11028  -0.00024   0.00000  -0.00492  -0.00493   0.10535
   D38       -1.85210  -0.00004   0.00000  -0.00326  -0.00326  -1.85536
   D39        1.87087  -0.00009   0.00000  -0.00485  -0.00486   1.86602
   D40        1.92192  -0.00025   0.00000  -0.00239  -0.00239   1.91953
   D41       -0.04046  -0.00006   0.00000  -0.00073  -0.00073  -0.04118
   D42       -2.60067  -0.00011   0.00000  -0.00232  -0.00232  -2.60299
   D43       -1.34171  -0.00013   0.00000  -0.00423  -0.00423  -1.34595
   D44        2.97909   0.00007   0.00000  -0.00257  -0.00257   2.97652
   D45        0.41888   0.00002   0.00000  -0.00416  -0.00416   0.41472
   D46        1.62418  -0.00049   0.00000   0.00215   0.00214   1.62632
   D47       -0.03613   0.00007   0.00000   0.00067   0.00067  -0.03546
   D48       -3.08453   0.00003   0.00000   0.00203   0.00203  -3.08250
   D49       -1.68718   0.00003   0.00000   0.00058   0.00058  -1.68660
   D50        0.10059   0.00003   0.00000   0.00046   0.00046   0.10105
   D51        2.80799   0.00016   0.00000   0.00165   0.00165   2.80964
   D52       -0.12050   0.00007   0.00000  -0.00002  -0.00001  -0.12051
   D53        1.90927  -0.00006   0.00000   0.00006   0.00006   1.90933
   D54       -2.14304   0.00004   0.00000  -0.00004  -0.00004  -2.14308
   D55        0.09620  -0.00006   0.00000  -0.00037  -0.00037   0.09583
   D56       -1.94473   0.00005   0.00000  -0.00040  -0.00040  -1.94513
   D57        2.12200  -0.00005   0.00000  -0.00038  -0.00038   2.12161
         Item               Value     Threshold  Converged?
 Maximum Force            0.002351     0.000015     NO 
 RMS     Force            0.000440     0.000010     NO 
 Maximum Displacement     0.016503     0.000060     NO 
 RMS     Displacement     0.005182     0.000040     NO 
 Predicted change in Energy=-8.237283D-05
 GradGradGradGradGradGradGradGradGradGradGradGradGradGradGradGradGradGrad

                          Input orientation:                          
 ---------------------------------------------------------------------
 Center     Atomic      Atomic             Coordinates (Angstroms)
 Number     Number       Type             X           Y           Z
 ---------------------------------------------------------------------
      1          6           0       -0.415500    1.064309    0.804607
      2          6           0        0.830133    1.659786    1.087350
      3          6           0        0.953359    2.271357   -0.181925
      4          6           0       -0.279566    1.752163   -0.678460
      5          6           0       -1.701810    1.836022   -0.635083
      6          6           0       -1.806548    1.215807    0.628894
      7          1           0        1.696162    2.883831   -0.631834
      8          1           0       -2.408645    2.202693   -1.340283
      9          1           0       -2.633129    0.949813    1.246820
     10          1           0        1.447160    1.649749    1.955709
     11          6           0        0.315583   -0.709560   -0.660678
     12          6           0        0.144442    0.123187   -1.756426
     13          8           0       -1.018407   -0.296211   -2.453288
     14          8           0       -0.712592   -1.635140   -0.565237
     15          6           0       -1.639201   -1.342164   -1.661014
     16          1           0       -2.570228   -0.956186   -1.225547
     17          1           0       -1.723507   -2.241541   -2.283677
     18          1           0        0.817587    0.640880   -2.418465
     19          1           0        1.088981   -0.865947    0.063671
 ---------------------------------------------------------------------
                    Distance matrix (angstroms):
                    1          2          3          4          5
     1  C    0.000000
     2  C    1.409304   0.000000
     3  C    2.074605   1.414306   0.000000
     4  C    1.640459   2.087594   1.426960   0.000000
     5  C    2.079144   3.067339   2.728514   1.425374   0.000000
     6  C    1.410263   2.712819   3.064098   2.080511   1.411834
     7  H    3.135784   2.281203   1.062685   2.277355   3.555858
     8  H    3.141512   4.083850   3.556625   2.274635   1.063659
     9  H    2.264186   3.538880   4.080525   3.144793   2.279096
    10  H    2.266557   1.065303   2.280288   3.151336   4.082023
    11  C    2.414157   2.989008   3.085746   2.532706   3.248157
    12  C    2.785343   3.304296   2.783530   1.998839   2.756785
    13  O    3.581674   4.447374   3.954663   2.809223   2.884325
    14  O    3.041670   3.995945   4.264157   3.416745   3.610041
    15  C    3.656206   4.760548   4.686855   3.519784   3.340258
    16  H    3.584240   4.873937   4.890997   3.589094   2.983158
    17  H    4.709248   5.753716   5.652364   4.539973   4.398279
    18  H    3.476778   3.650899   2.771101   2.338014   3.310012
    19  H    2.557017   2.737563   3.149824   3.046010   3.946823
                    6          7          8          9         10
     6  C    0.000000
     7  H    4.079303   0.000000
     8  H    2.283445   4.220816   0.000000
     9  H    1.065749   5.100247   2.883262   0.000000
    10  H    3.540531   2.877558   5.102602   4.200142   0.000000
    11  C    3.142209   3.849583   4.045306   3.884195   3.700310
    12  C    3.269546   3.360609   3.319003   4.173452   4.219884
    13  O    3.522387   4.560619   3.068561   4.225009   5.413413
    14  O    3.278808   5.121291   4.266878   3.695131   4.670138
    15  C    3.437281   5.481140   3.641556   3.833608   5.617638
    16  H    2.956301   5.770642   3.165090   3.122402   5.748974
    17  H    4.521418   6.379040   4.594630   4.845263   6.570211
    18  H    4.062391   2.999128   3.743035   5.043530   4.532944
    19  H    3.610715   3.861765   4.860147   4.307079   3.168096
                   11         12         13         14         15
    11  C    0.000000
    12  C    1.386875   0.000000
    13  O    2.272408   1.419059   0.000000
    14  O    1.386705   2.290230   2.334735   0.000000
    15  C    2.285179   2.310355   1.451586   1.464639   0.000000
    16  H    2.950900   2.969228   2.085920   2.085138   1.097917
    17  H    3.023074   3.059275   2.076112   2.083917   1.097131
    18  H    2.272776   1.076766   2.061608   3.310010   3.246846
    19  H    1.071112   2.276685   3.331780   2.057388   3.262560
                   16         17         18         19
    16  H    0.000000
    17  H    1.867810   0.000000
    18  H    3.930772   3.844955   0.000000
    19  H    3.880726   3.913104   2.916364   0.000000
 Symmetry turned off by external request.
 Stoichiometry    C9H8O2
 Framework group  C1[X(C9H8O2)]
 Deg. of freedom    51
 Full point group                 C1      NOp   1
 Rotational constants (GHZ):           2.1919030           1.0758864           1.0338710
 Standard basis: VSTO-6G (5D, 7F)
    52 basis functions,   312 primitive gaussians,    52 cartesian basis functions
    28 alpha electrons       28 beta electrons
       nuclear repulsion energy       341.8974542699 Hartrees.
 Integral buffers will be    131072 words long.
 Regular integral format.
 Two-electron integral symmetry is turned off.
 Do NDO integrals.
 One-electron integrals computed using PRISM.
 NBasis=    52 RedAO= F EigKep=  0.00D+00  NBF=    52
 NBsUse=    52 1.00D-04 EigRej=  0.00D+00 NBFU=    52
 Initial guess from the checkpoint file:  "C:\Users\al6323\OneDrive - Imperial College London\Desktop\TSR20251113\TS(Berny)_PM6_endo_unfreeze.chk"
 B after Tr=    -0.000456    0.000208    0.000298
         Rot=    1.000000    0.000082    0.000100    0.000155 Ang=   0.02 deg.
 Keep J ints in memory in canonical form, NReq=867036.
 Overlap will be assumed to be unity.
 Requested convergence on RMS density matrix=1.00D-08 within  32 cycles.
 Requested convergence on MAX density matrix=1.00D-06.
 Requested convergence on             energy=1.00D-06.
 No special actions if energy rises.
 SCF Done:  E(RPM6) =  0.199438962520     A.U. after   14 cycles
            NFock= 13  Conv=0.88D-08     -V/T= 1.0019
 QCSCF skips out because SCF is already converged.
 Calling FoFJK, ICntrl=      2127 FMM=F ISym2X=0 I1Cent= 0 IOpClX= 0 NMat=1 NMatS=1 NMatT=0.
 -------------------------------------------------------------------
 Center     Atomic                   Forces (Hartrees/Bohr)
 Number     Number              X              Y              Z
 -------------------------------------------------------------------
      1        6           0.000516264    0.002885629   -0.003126747
      2        6           0.000036437    0.000363472   -0.000832339
      3        6           0.000151172   -0.000269271    0.000863796
      4        6          -0.000097568   -0.000049169    0.000019344
      5        6          -0.000155999    0.000022142    0.000288381
      6        6          -0.000622807   -0.002185511    0.002159368
      7        1          -0.000013248    0.000004756    0.000030915
      8        1           0.000001011   -0.000014705   -0.000017196
      9        1          -0.000002109    0.000026417    0.000000451
     10        1           0.000015344   -0.000014956   -0.000048945
     11        6           0.001537836   -0.001865435    0.003151199
     12        6           0.000114649   -0.000394653    0.000082539
     13        8           0.000119468    0.000112419   -0.000122523
     14        8          -0.001642139    0.001355122   -0.002662562
     15        6           0.000033173   -0.000108017    0.000195482
     16        1           0.000012627    0.000014475    0.000020588
     17        1          -0.000022628    0.000009170   -0.000006191
     18        1          -0.000035760    0.000057558    0.000010205
     19        1           0.000054277    0.000050555   -0.000005763
 -------------------------------------------------------------------
 Cartesian Forces:  Max     0.003151199 RMS     0.001005840

 GradGradGradGradGradGradGradGradGradGradGradGradGradGradGradGradGradGrad
 Berny optimization.
 FormGI is forming the generalized inverse of G from B-inverse, IUseBI=4.
 Internal  Forces:  Max     0.002214026 RMS     0.000414819
 Search for a saddle point.
 Step number   3 out of a maximum of  114
 All quantities printed in internal units (Hartrees-Bohrs-Radians)
 Swapping is turned off.
 Update second derivatives using D2CorX and points    1    2    3
 ITU=  0  0  0
     Eigenvalues ---   -0.05847   0.00155   0.00417   0.00511   0.00747
     Eigenvalues ---    0.00758   0.01071   0.01350   0.01756   0.01845
     Eigenvalues ---    0.01976   0.02056   0.02966   0.03360   0.03695
     Eigenvalues ---    0.03891   0.04599   0.04784   0.05634   0.06878
     Eigenvalues ---    0.07133   0.07201   0.08048   0.08187   0.08262
     Eigenvalues ---    0.08351   0.08557   0.08829   0.09612   0.12623
     Eigenvalues ---    0.19145   0.22222   0.22938   0.23725   0.25095
     Eigenvalues ---    0.25988   0.26497   0.26823   0.27194   0.27577
     Eigenvalues ---    0.27773   0.28967   0.31241   0.33014   0.33764
     Eigenvalues ---    0.37527   0.38140   0.43563   0.49433   0.53517
     Eigenvalues ---    0.69452
 Eigenvectors required to have negative eigenvalues:
                          R9        R3        A10       A1        D42
   1                    0.70688   0.47570   0.20136   0.15568  -0.13836
                          D39       R13       A12       D51       R6
   1                   -0.12416  -0.12220  -0.11627   0.10262  -0.09778
 RFO step:  Lambda0=7.009706069D-08 Lambda=-1.23844105D-03.
 Linear search not attempted -- option 19 set.
 Maximum step size (   0.010) exceeded in Quadratic search.
    -- Step size scaled by   0.064
 Iteration  1 RMS(Cart)=  0.00511369 RMS(Int)=  0.00001029
 Iteration  2 RMS(Cart)=  0.00001531 RMS(Int)=  0.00000304
 Iteration  3 RMS(Cart)=  0.00000000 RMS(Int)=  0.00000304
 Variable       Old X    -DE/DX   Delta X   Delta X   Delta X     New X
                                 (Linear)    (Quad)   (Total)
    R1        2.66320  -0.00003   0.00000   0.00024   0.00024   2.66344
    R2        2.66501  -0.00002   0.00000  -0.00010  -0.00010   2.66491
    R3        4.56210   0.00008   0.00000  -0.00657  -0.00657   4.55552
    R4        2.67265  -0.00129   0.00000  -0.00025  -0.00025   2.67240
    R5        2.01313  -0.00003   0.00000  -0.00002  -0.00002   2.01311
    R6        2.69656   0.00018   0.00000  -0.00005  -0.00005   2.69651
    R7        2.00818  -0.00002   0.00000   0.00006   0.00006   2.00824
    R8        2.69357   0.00031   0.00000  -0.00016  -0.00015   2.69341
    R9        3.77726   0.00012   0.00000   0.00356   0.00356   3.78082
   R10        2.66798   0.00011   0.00000   0.00035   0.00036   2.66833
   R11        2.01002   0.00001   0.00000   0.00000   0.00000   2.01003
   R12        2.01397   0.00000   0.00000  -0.00006  -0.00006   2.01391
   R13        2.62081   0.00041   0.00000   0.00010   0.00010   2.62091
   R14        2.62049   0.00045   0.00000   0.00055   0.00055   2.62104
   R15        2.02411   0.00003   0.00000  -0.00013  -0.00013   2.02398
   R16        2.68163   0.00000   0.00000  -0.00036  -0.00036   2.68128
   R17        2.03479   0.00000   0.00000  -0.00013  -0.00013   2.03467
   R18        2.74310  -0.00047   0.00000  -0.00004  -0.00004   2.74306
   R19        2.76777  -0.00054   0.00000  -0.00038  -0.00038   2.76739
   R20        2.07476   0.00000   0.00000   0.00000   0.00000   2.07477
   R21        2.07328   0.00000   0.00000   0.00003   0.00003   2.07330
    A1        2.58950   0.00080   0.00000   0.00084   0.00084   2.59034
    A2        1.73613  -0.00012   0.00000   0.00321   0.00321   1.73933
    A3        1.87760  -0.00034   0.00000  -0.00283  -0.00284   1.87476
    A4        1.65055   0.00006   0.00000  -0.00014  -0.00014   1.65041
    A5        2.30702  -0.00001   0.00000   0.00000  -0.00001   2.30701
    A6        2.32561  -0.00005   0.00000   0.00015   0.00015   2.32575
    A7        1.65055  -0.00003   0.00000  -0.00005  -0.00005   1.65050
    A8        2.33240   0.00000   0.00000   0.00006   0.00006   2.33246
    A9        2.30006   0.00003   0.00000  -0.00001  -0.00001   2.30005
   A10        2.55014   0.00027   0.00000   0.00076   0.00076   2.55090
   A11        1.87643  -0.00010   0.00000  -0.00153  -0.00153   1.87490
   A12        1.85045  -0.00016   0.00000   0.00052   0.00051   1.85096
   A13        1.64629  -0.00012   0.00000   0.00009   0.00009   1.64638
   A14        2.29585   0.00004   0.00000   0.00000   0.00000   2.29585
   A15        2.34019   0.00007   0.00000  -0.00009  -0.00009   2.34010
   A16        1.65647  -0.00038   0.00000  -0.00050  -0.00050   1.65597
   A17        2.29959   0.00020   0.00000   0.00032   0.00032   2.29991
   A18        2.32713   0.00018   0.00000   0.00018   0.00018   2.32731
   A19        1.57178  -0.00027   0.00000   0.00076   0.00075   1.57253
   A20        1.79685   0.00020   0.00000   0.00213   0.00214   1.79899
   A21        1.48618   0.00012   0.00000  -0.00089  -0.00089   1.48529
   A22        1.94299  -0.00119   0.00000  -0.00093  -0.00093   1.94206
   A23        2.36182  -0.00002   0.00000   0.00056   0.00056   2.36238
   A24        1.97292   0.00122   0.00000   0.00020   0.00020   1.97312
   A25        1.66035  -0.00007   0.00000   0.00027   0.00026   1.66061
   A26        1.90908  -0.00023   0.00000  -0.00177  -0.00176   1.90731
   A27        1.64323   0.00014   0.00000  -0.00021  -0.00020   1.64303
   A28        1.88772   0.00040   0.00000   0.00062   0.00062   1.88835
   A29        2.34245   0.00005   0.00000   0.00012   0.00012   2.34256
   A30        1.93098  -0.00039   0.00000  -0.00001  -0.00001   1.93097
   A31        1.87065   0.00018   0.00000  -0.00011  -0.00011   1.87054
   A32        1.85884   0.00094   0.00000   0.00054   0.00054   1.85938
   A33        1.85658  -0.00033   0.00000  -0.00012  -0.00012   1.85647
   A34        1.90268   0.00004   0.00000   0.00003   0.00003   1.90271
   A35        1.88997   0.00010   0.00000   0.00001   0.00001   1.88998
   A36        1.88606   0.00003   0.00000   0.00011   0.00011   1.88617
   A37        1.88519   0.00012   0.00000   0.00007   0.00007   1.88526
   A38        2.03547   0.00000   0.00000  -0.00011  -0.00011   2.03536
    D1       -1.29938  -0.00034   0.00000  -0.00045  -0.00045  -1.29984
    D2        1.83678  -0.00044   0.00000  -0.00039  -0.00040   1.83639
    D3        1.29634   0.00043   0.00000   0.00292   0.00292   1.29926
    D4       -1.85068   0.00033   0.00000   0.00298   0.00298  -1.84770
    D5        1.29077   0.00019   0.00000   0.00049   0.00049   1.29126
    D6       -1.84947   0.00042   0.00000   0.00033   0.00033  -1.84914
    D7       -1.28375  -0.00067   0.00000  -0.00396  -0.00395  -1.28770
    D8        1.85920  -0.00044   0.00000  -0.00412  -0.00411   1.85509
    D9       -1.58470   0.00014   0.00000   0.00639   0.00639  -1.57831
[...]
 ,0.1172212,-0.0079616,0.1306542,0.0365293,0.1360905,0.0498911,0.277513
 9,0.0622154,0.96136,-0.0708889,0.320896,0.8263477,0.0131334,-0.0957319
 ,-0.2114328,-0.3428905,0.0977779,0.2317177,0.6600059,0.0666553,-0.5820
 041,0.1757179,0.3327951,0.3717669,0.4233537,-0.6173017,-0.2358304,-0.5
 00861,-0.2597283,-0.4244718,-0.2191705,-0.0566931,-0.0244546,-0.627451
 4,-0.5750005,-0.9616854,-0.1136418,-0.1419492,-0.9173651,0.0155619,-0.
 197494,-0.1795101,-0.4218729,0.4104432,0.2908042,0.1695356,0.1252458,0
 .2452769,-0.0905899,0.0633332,0.05666,0.3960918,0.1520463,-0.0027852,-
 0.0077244,-0.0380682,0.039877,0.018618,-0.0264949,0.0007743,0.0255588,
 0.0455685,0.0028752,0.002262,0.035903,0.1895175,0.0843819,0.0247668,0.
 0840665,0.1086687,0.2045276,-0.0401868,-0.1535158,0.0455804,0.1859922,
 -0.1211466,-0.1378519,-0.0267523,0.2044714,0.2096205,-0.1675156,0.0553
 436,-0.097727,0.121451,-0.0244282,0.1155354,-0.1688981,0.21973|Polar=8
 6.1242877,11.3086148,93.724335,7.4984018,-1.6433272,85.6104032|HyperPo
 lar=-15.1007155,106.567413,103.5481561,537.7775011,51.5524571,4.325747
 3,190.2845016,35.7920403,149.996768,204.8468002|PG=C01 [X(C9H8O2)]|NIm
 ag=1||0.72662645,0.13529040,0.18370956,0.08932172,-0.09088022,0.222507
 74,-0.26001546,-0.11023984,-0.01982343,0.49551301,-0.08053425,-0.06972
 566,-0.01101617,0.10714717,0.23877314,-0.11899079,-0.07523544,-0.04946
 271,0.22851275,-0.09445202,0.59793711,0.00324338,-0.02321507,0.0434183
 9,-0.06667313,-0.03943851,0.05296030,0.49030402,-0.06564332,-0.0382718
 2,0.04217359,0.01465165,-0.12707360,0.15311831,0.24987796,0.38278912,0
 .10485352,0.08708606,0.00654122,-0.05493415,0.08509980,-0.29358861,-0.
 04627725,-0.18844125,0.44281673,-0.10029742,-0.00414718,0.00295902,0.0
 1412283,0.04465557,-0.10449615,-0.25138039,-0.13182400,-0.00853330,0.6
 9789650,-0.00068039,-0.10128977,0.00355280,0.02378966,0.05142546,-0.01
 767843,-0.06493781,-0.08810302,0.00828661,0.13910196,0.10300926,-0.002
 41408,0.01918875,-0.12711403,-0.03536404,0.03071041,-0.09027048,-0.080
 84628,-0.05934934,-0.01886923,0.07510939,-0.06361094,0.27330786,0.0135
 6685,0.01725217,-0.05433573,-0.03033986,-0.01601998,0.01095165,-0.0370
 3572,0.01158394,-0.03032866,-0.31295266,-0.03288150,0.02183499,0.59191
 407,0.06644108,-0.00154331,0.03831411,-0.01562761,-0.00816216,0.013899
 35,-0.02548498,-0.00095082,-0.02064663,0.04639972,-0.04108205,-0.01349
 499,-0.09060799,0.23455392,-0.12593783,0.04421681,-0.03793319,0.016479
 16,0.01651545,-0.01736016,0.01958044,-0.00491775,0.01935628,-0.0685752
 3,0.00176428,-0.01256108,0.15499044,-0.19014563,0.48764033,-0.33032096
 ,0.01302262,-0.04752944,-0.04693297,-0.02129425,0.02660843,-0.02801152
 ,0.00148602,-0.02421450,0.00977341,-0.03460164,0.04334485,-0.07667392,
 -0.03048364,0.07015182,0.62330608,-0.02802348,-0.03037517,-0.00806204,
 0.00412336,-0.00061070,-0.00558359,0.00156276,-0.00035295,0.01027608,-
 0.06284622,0.01659163,0.03439880,0.03454273,-0.11988168,0.11797756,0.0
 8198743,0.22223524,0.06826173,-0.01786990,-0.02657619,-0.03899329,-0.0
 2248104,0.01657739,-0.01755456,0.00949779,-0.02707339,0.12354733,0.022
 84747,-0.04894079,-0.05420551,0.12236853,-0.28409636,-0.15941298,-0.18
 079089,0.48509065,0.00062498,-0.00348574,-0.00066965,0.00145560,-0.002
 13371,0.00299222,-0.11901756,-0.07881650,0.05587034,-0.02191771,-0.018
 29878,0.00545825,0.00040626,-0.00118197,-0.00088367,0.00071603,0.00022
 852,0.00008672,0.13660525,-0.00102879,0.00346333,0.00274986,-0.0085800
 7,-0.00787784,0.01304492,-0.07774188,-0.11375931,0.05152380,-0.0123726
 1,-0.00476942,0.00066368,-0.00104260,-0.00048631,0.00225136,-0.0016729
 6,0.00034862,-0.00067672,0.10341992,0.12152821,0.00026823,0.00261689,0
 .00102986,0.01393730,0.01835369,-0.01451427,0.05608422,0.05195748,-0.0
 7600699,-0.00676896,-0.00285245,0.00427513,0.00020593,-0.00053495,0.00
 097692,-0.00058964,0.00010512,0.00010972,-0.06291604,-0.07015121,0.084
 29109,-0.00042258,0.00117290,-0.00074361,0.00004890,-0.00052389,0.0001
 3200,-0.00052580,0.00130044,-0.00045874,-0.02910275,0.00725198,-0.0135
 5931,-0.13456811,0.04639887,-0.08583782,0.00234131,0.00103757,-0.00328
 871,-0.00001583,-0.00003587,0.00008952,0.16122284,-0.00128754,0.004129
 29,0.00274837,0.00146269,0.00106838,-0.00035482,0.00062539,0.00035449,
 0.00259119,0.00104928,0.00391652,-0.00129442,0.04523910,-0.05934436,0.
 03811693,0.00809901,-0.00342856,0.01367110,-0.00007258,0.00025440,-0.0
 0002736,-0.05554725,0.05164651,-0.00185132,0.00271109,0.00078779,0.000
 52478,0.00029726,0.00016272,-0.00011600,-0.00030182,0.00099400,-0.0014
 6253,0.00197790,0.00277763,-0.08610546,0.03877281,-0.11483381,-0.01503
 546,0.01233925,-0.01905875,-0.00010711,-0.00006712,0.00010676,0.103987
 63,-0.05661209,0.12910647,-0.02976868,-0.00709488,0.01261883,-0.000303
 28,0.00046382,0.00114493,0.00014922,-0.00019951,-0.00030604,-0.0010760
 8,0.00007179,0.00130749,0.00197807,-0.00241397,0.00347965,-0.14191235,
 -0.04363136,0.08653235,0.00008067,-0.00035143,0.00004557,0.00055796,0.
 00015010,0.00008705,0.16999587,0.00000950,0.00370856,0.00194413,0.0003
 3187,0.00187260,-0.00112821,0.00103403,0.00033947,0.00046539,-0.002012
 06,0.00525348,0.00260157,-0.00803261,-0.00162762,0.01126529,-0.0447424
 9,-0.06026781,0.03566758,0.00055056,-0.00054010,-0.00036234,0.00011415
 ,0.00095715,0.00080973,0.05335831,0.04954627,0.00089883,-0.00087691,0.
 00403248,0.00039546,0.00137345,-0.00023678,0.00066172,0.00007004,0.000
 42234,0.00067524,0.00284366,0.00065643,0.01572662,0.01199690,-0.019669
 99,0.08572662,0.03564802,-0.10820758,0.00044693,-0.00010127,-0.0001302
 1,0.00011365,0.00084981,-0.00020702,-0.10430082,-0.05212534,0.12270914
 ,-0.02138797,-0.00502764,-0.01905988,-0.11185761,0.00259821,-0.0943024
 1,0.00264726,0.00099727,-0.00209205,0.00059261,-0.00296993,-0.00254167
 ,0.00070954,0.00023052,0.00016636,0.00063844,-0.00144419,-0.00038568,0
 .00091242,-0.00042842,-0.00017266,0.00010325,0.00066394,0.00018931,-0.
 00004094,-0.00015474,-0.00000530,0.12759338,-0.01220774,0.00097010,-0.
 00678687,0.00381037,-0.04071768,0.00172680,0.00604683,0.00213616,0.012
 00438,-0.00112833,0.00472870,0.00214051,-0.00118169,0.00000488,0.00004
 442,-0.00034150,0.00133240,-0.00152278,-0.00040307,0.00071031,0.000659
 74,-0.00017413,-0.00048278,-0.00040362,0.00007583,0.00011182,0.0000546
 0,0.00551951,0.03075079,-0.00771765,-0.00260344,-0.00159196,-0.0937029
 5,0.00181224,-0.15763258,-0.01331543,0.00621498,-0.02478449,-0.0017772
 5,0.00192049,0.00001613,-0.00073502,-0.00022124,0.00015949,-0.00066522
 ,0.00086326,-0.00058461,-0.00017930,0.00068623,-0.00028476,-0.00030946
 ,-0.00010595,-0.00019126,-0.00008438,0.00000750,0.00023244,0.11835390,
 -0.00878280,0.18412043,-0.00268750,-0.01636898,-0.00687363,0.00224424,
 0.00429703,-0.00410770,0.00591101,-0.00020393,0.00611250,0.00439044,-0
 .00937199,-0.00695023,-0.01098826,0.00130895,0.00577568,-0.00684867,0.
 01023638,-0.00438326,-0.00037262,-0.00062084,0.00010612,0.00100856,-0.
 00073603,0.00044347,0.00055609,0.00077266,-0.00026701,-0.00039489,0.00
 009102,-0.00041036,0.41573677,-0.00278283,0.01271045,0.01134472,-0.009
 09472,-0.00925070,-0.00167043,0.00319024,0.00031315,-0.00566487,0.0059
 2375,-0.02983292,0.00313780,-0.00186699,-0.00048288,-0.00622794,0.0113
 4099,-0.00403789,0.00178055,-0.00076672,-0.00003915,0.00066967,0.00056
 428,0.00035027,0.00096434,0.00032942,0.00074916,-0.00016220,-0.0001881
 1,0.00014106,-0.00026969,0.07691340,0.34258705,-0.01636258,0.06401425,
 0.03710996,-0.02144158,-0.02994005,0.01178388,-0.01604186,-0.00302776,
 -0.03092621,-0.01864991,0.06600716,0.04341262,0.02439160,0.00540607,-0
 .02739538,0.02864267,-0.02049315,0.01925015,-0.00014515,0.00049884,0.0
 0026934,-0.00036635,0.00056374,0.00005247,-0.00051126,0.00035907,0.000
 41209,0.00003476,0.00054104,0.00032740,0.18297979,-0.26882379,0.501898
 24,0.00375675,-0.00876876,-0.00360652,0.00382559,0.00553261,-0.0041638
 0,0.00568142,-0.00134750,0.00525366,-0.00540258,-0.02207498,-0.0141785
 7,-0.01284635,0.00412265,0.01324176,-0.00816070,0.00576164,-0.00325160
 ,-0.00035479,-0.00048159,0.00019746,0.00053500,0.00013392,0.00079979,0
 .00065007,-0.00043025,-0.00067716,-0.00017187,-0.00009109,-0.00022176,
 -0.05038936,-0.00134872,0.02254468,0.40735687,-0.01527291,0.05568374,0
 .02801815,-0.01669423,-0.03047070,0.01694639,-0.03274080,-0.01503494,-
 0.04575006,-0.02780078,0.10198214,0.06696813,0.04657269,0.00246560,-0.
 03659428,0.02381302,-0.02289277,0.02346655,0.00034590,0.00071351,0.000
 09744,-0.00071279,0.00069793,0.00004792,-0.00029106,0.00033964,0.00030
 359,-0.00012288,0.00041321,0.00010695,0.03215587,-0.15208187,0.1012419
 2,0.19153476,0.22582322,0.00725162,-0.01938004,-0.02372984,0.00340407,
 0.00177468,-0.00096514,-0.00274496,-0.00542215,-0.00043326,0.00186299,
 -0.00212384,-0.00944577,0.00271846,-0.00263753,0.00240341,-0.00431627,
 0.00100356,-0.00236982,-0.00004927,-0.00045002,-0.00004139,0.00044756,
 -0.00009829,0.00052516,0.00038439,0.00064272,-0.00007830,-0.00044432,0
 .00031887,-0.00018316,-0.01493203,0.20092157,-0.29853351,-0.00648041,-
 0.25011644,0.56752504,0.00124828,-0.00068205,0.00180794,-0.00251448,-0
 .00025631,-0.00073948,0.00257993,0.00016908,-0.00113691,0.00151758,-0.
 00428339,-0.00204452,-0.00226226,0.00029838,-0.00008612,0.00189649,0.0
 0081854,-0.00089511,0.00005961,0.00016472,-0.00001972,-0.00044535,-0.0
 0043073,-0.00084633,-0.00054882,-0.00003813,0.00038101,0.00019334,0.00
 028803,0.00041040,-0.03207370,-0.00183026,-0.05290261,-0.15617224,-0.0
 3398321,-0.08807321,0.31704536,0.00118369,-0.00313218,-0.00117595,-0.0
 0098798,0.00120252,-0.00156048,0.00309665,-0.00040378,0.00025556,-0.00
 317120,-0.00970991,-0.00808557,-0.00220693,-0.00151589,0.00017363,-0.0
 0017473,0.00188481,-0.00106662,-0.00000715,0.00007578,0.00000532,-0.00
 014690,0.00017578,0.00017319,-0.00036193,-0.00013482,0.00018888,0.0001
 4255,0.00030598,0.00044859,-0.00408711,-0.00401239,0.00957563,-0.04257
 153,-0.03593025,-0.00998180,0.14008002,0.20360922,0.00029047,-0.001742
 66,0.00028768,-0.00119428,0.00040486,-0.00109712,0.00213684,-0.0000463
 6,-0.00017293,-0.00243385,-0.00765797,-0.00430984,-0.00112705,-0.00141
 346,-0.00062355,0.00078110,0.00068784,-0.00055200,0.00016922,0.0001381
 6,-0.00019719,-0.00023691,0.00014203,-0.00033393,-0.00022735,0.0001192
 1,0.00017349,0.00013136,0.00024165,0.00033294,-0.04100678,0.01060748,-
 0.05860984,-0.09622073,-0.00903364,-0.12868031,0.08573078,-0.09358862,
 0.33786718,-0.00020021,0.00208545,-0.00233257,0.00316204,-0.00245822,0
 .00205245,-0.00590627,-0.00177754,-0.00097707,-0.00068558,0.00818317,0
 .00028104,0.00655410,0.00041068,0.00024761,-0.00207711,-0.00263942,0.0
 0204082,0.00063735,0.00073534,-0.00029066,-0.00105103,0.00033611,-0.00
 077830,-0.00055865,-0.00104212,0.00011386,0.00029505,-0.00017208,0.000
 27111,-0.16762747,-0.09878474,0.00299398,-0.02639697,-0.06031877,0.020
 38841,0.02310756,0.01855851,-0.00313059,0.32545086,-0.00247353,-0.0048
 9745,-0.00500252,0.00289304,-0.00134469,0.00095780,-0.00364989,-0.0016
 7113,0.00034115,0.00007119,0.00240565,-0.00139904,0.00273264,0.0002964
 9,0.00145327,-0.00204562,-0.00200318,-0.00056806,0.00049920,0.00066751
 ,-0.00019990,-0.00060976,0.00032551,-0.00032097,-0.00036202,-0.0003388
 4,0.00026135,0.00030363,-0.00018132,0.00030086,-0.11063843,-0.12344946
 ,0.02711653,-0.03783494,-0.05035072,0.03144478,0.00474673,-0.01227676,
 0.03241165,0.13978437,0.24880680,-0.00080330,-0.00466511,-0.00208564,0
 .00137372,-0.00013274,-0.00007901,-0.00082801,-0.00061543,0.00078831,0
 .00080859,-0.00107183,-0.00114756,-0.00006101,0.00036100,0.00178842,-0
 .00147421,-0.00004950,-0.00102108,0.00021130,0.00032467,-0.00010579,-0
 .00032254,-0.00001322,-0.00036625,-0.00006797,0.00010968,0.00000613,0.
 00003058,0.00001182,0.00003759,0.00577522,0.03148945,-0.05069080,0.014
 37399,0.02590670,-0.01696192,0.01307749,0.04455629,-0.04716278,0.08665
 504,-0.11660213,0.28866351,0.00024539,-0.00122228,-0.00063048,0.000133
 45,0.00090489,-0.00038366,0.00096398,0.00039054,0.00079543,0.00036577,
 -0.00230952,-0.00047258,-0.00098193,-0.00030952,0.00006643,-0.00003682
 ,0.00044181,-0.00031732,-0.00017030,-0.00014536,0.00008397,0.00041001,
 0.00014467,0.00030139,0.00029580,0.00023595,-0.00001569,-0.00011061,-0
 .00000401,-0.00012501,-0.04674846,-0.00785220,-0.03420316,-0.04341751,
 -0.03133143,0.00869890,-0.09643916,-0.06136987,0.03579110,-0.09482001,
 0.00934286,-0.06594969,0.47698342,-0.00065930,0.00064466,-0.00022585,0
 .00083437,-0.00064313,0.00069508,-0.00149697,-0.00030952,-0.00017005,-
 0.00033023,0.00072077,-0.00017167,0.00108060,-0.00063038,0.00011896,-0
 .00096012,-0.00124048,-0.00036212,0.00007069,0.00005203,-0.00003853,-0
 .00001815,-0.00018431,-0.00025647,0.00027685,0.00003969,-0.00015937,-0
 .00006000,-0.00009571,-0.00018176,-0.00243763,0.01751590,-0.02028859,-
 0.03973084,-0.03015073,-0.01141099,-0.05296928,-0.10671162,0.06101819,
 0.00216405,-0.06674510,0.03269555,0.03712842,0.41378548,0.00037208,-0.
 00097817,0.00071004,-0.00180327,0.00054764,-0.00082652,0.00248910,0.00
 054058,-0.00043457,-0.00069225,-0.00211932,-0.00007416,-0.00240884,-0.
 00097522,-0.00090143,0.00128825,0.00082270,-0.00073430,-0.00026855,-0.
 00030040,0.00017137,0.00046297,-0.00007498,0.00046387,-0.00003814,-0.0
 0009315,0.00001240,-0.00003723,0.00013911,0.00006872,-0.04540697,-0.03
 435191,-0.01046599,0.01355787,0.00359447,0.02944587,0.02761965,0.05138
 917,-0.10982111,-0.05261274,0.04320728,-0.14271336,0.01649380,0.042800
 86,0.37289437,-0.00000664,-0.00012724,0.00005128,-0.00002573,0.0001699
 4,-0.00003530,0.00012895,0.00012986,0.00014410,0.00004397,-0.00025572,
 -0.00006503,-0.00026713,-0.00025520,-0.00009067,-0.00004186,-0.0000577
 4,-0.00014887,-0.00002948,-0.00005250,0.00001263,0.00018013,-0.0000375
 3,0.00005974,0.00015324,0.00004272,-0.00003247,-0.00001900,-0.00001592
 ,-0.00004228,-0.00157457,0.00056972,-0.00048662,-0.00139547,-0.0000589
 5,0.00054119,-0.02418522,-0.00583252,0.01647867,-0.02529140,0.01238713
 ,-0.01143678,-0.15695698,0.06292108,0.04395043,0.20870839,-0.00006858,
 0.00007242,-0.00001192,0.00009654,-0.00004699,-0.00000900,-0.00003483,
 -0.00002984,0.00004683,0.00012611,0.00011247,-0.00001214,0.00003440,-0
 .00029861,-0.00008460,0.00001962,-0.00010926,-0.00016188,-0.00001457,-
 0.00001452,0.00001818,-0.00009281,-0.00022652,-0.00002999,-0.00003665,
 -0.00003397,-0.00008056,-0.00001036,-0.00000762,-0.00002558,0.00073797
 ,-0.00162900,-0.00027266,-0.00051718,0.00044836,0.00392607,-0.01980197
 ,0.00115924,0.00662532,0.01047584,0.00131630,0.00562056,0.06798451,-0.
 06813668,-0.02579499,-0.07371208,0.07588855,0.00018662,0.00012798,-0.0
 0002402,0.00004573,-0.00005274,0.00004488,-0.00010702,-0.00007947,-0.0
 0010170,-0.00018326,0.00027433,0.00002198,0.00022966,-0.00012848,0.000
 07616,-0.00011448,-0.00013273,-0.00005665,0.00001194,-0.00000481,-0.00
 000631,-0.00003346,-0.00003559,0.00001739,-0.00006867,-0.00010631,-0.0
 0007891,-0.00000881,0.00000255,-0.00001160,-0.00063492,0.00507412,-0.0
 0151832,0.00108465,-0.00162029,-0.00326317,0.02055788,0.00662823,-0.00
 457618,-0.02642004,0.00562960,-0.00348172,0.04738719,-0.02608891,-0.04
 829705,-0.05186728,0.02100594,0.06077962,0.00006322,0.00013299,0.00013
 091,-0.00011126,-0.00016299,0.00007601,-0.00010080,-0.00005001,-0.0002
 0318,-0.00002672,0.00022845,0.00007319,0.00003276,0.00015346,0.0001190
 8,-0.00002918,0.00009149,0.00001948,-0.00000113,-0.00001608,0.00000438
 ,-0.00000997,-0.00005976,0.00000183,-0.00000218,-0.00002277,-0.0000414
 4,-0.00000232,-0.00000291,-0.00001463,-0.00038475,-0.00006787,-0.00197
 479,-0.00036499,-0.00177250,0.00068851,-0.00453527,-0.02027888,-0.0030
 6519,-0.00501332,-0.01117633,-0.01737224,-0.03444844,-0.00141823,-0.00
 097802,0.00109473,0.01512368,0.01009144,0.04416027,0.00015883,-0.00009
 253,0.00005359,-0.00011960,0.00007081,0.00000161,0.00015641,0.00006641
 ,-0.00005171,-0.00004187,-0.00018577,-0.00003443,-0.00020124,0.0000809
 8,0.00010636,-0.00001508,0.00007599,-0.00006539,-0.00004756,-0.0000675
 8,0.00002419,0.00004718,-0.00006725,0.00001162,0.00005048,0.00000884,-
 0.00004255,-0.00003294,-0.00000667,-0.00005123,-0.00123842,-0.00132242
 ,0.00219295,0.00069490,-0.00276102,0.00060009,-0.01630458,-0.02873234,
 -0.00181826,-0.00024662,0.00524533,-0.00653867,-0.00662041,-0.15728735
 ,-0.08026424,0.00426095,-0.00848294,-0.01015225,0.01966576,0.19330362,
 -0.00014297,0.00000008,0.00000309,0.00009465,0.00000486,0.00000887,-0.
 00004247,0.00006481,0.00011814,0.00016341,-0.00012075,-0.00003984,-0.0
 0001538,-0.00002906,-0.00004264,-0.00003329,0.00007231,0.00004988,-0.0
 0001728,-0.00003067,0.00000735,0.00003768,-0.00001886,0.00002383,0.000
 02267,-0.00002660,-0.00003724,-0.00002195,-0.00001864,-0.00004278,0.00
 107787,-0.00015776,-0.00409480,-0.00152558,0.00284739,-0.00237461,0.00
 679579,0.00817438,0.00905009,-0.01732670,-0.01635016,-0.02405786,-0.00
 444460,-0.08010245,-0.08682661,0.00296475,-0.01034603,0.00008869,0.012
 65848,0.09608043,0.10791404,-0.00094904,0.00321804,0.00160226,-0.00069
 012,-0.00176092,0.00097541,-0.00181503,-0.00037783,-0.00170417,-0.0047
 6745,0.01027274,0.00875471,0.00231074,0.00028596,-0.00136384,0.0009872
 6,-0.00125699,0.00126647,0.00026991,0.00011832,-0.00023230,-0.00014236
 ,0.00016675,-0.00003977,-0.00009326,-0.00001613,0.00007118,0.00007749,
 0.00001585,0.00009688,0.00281038,-0.00093291,-0.00032692,-0.11888044,-
 0.07227161,0.07382852,-0.03074092,-0.02043976,0.00520500,0.00119623,0.
 00108091,-0.00215922,-0.00278749,-0.00022999,-0.00357800,-0.00026075,-
 0.00047432,0.00041030,-0.00013105,-0.00021306,0.00009573,0.15308024,0.
 00196891,-0.00531217,-0.00224005,0.00046224,0.00178490,-0.00137984,0.0
 0260570,-0.00028214,0.00054501,0.00657437,-0.01090137,-0.00914908,-0.0
 0363724,-0.00077289,0.00179740,-0.00120155,0.00174845,-0.00225876,0.00
 013730,-0.00017943,-0.00032569,-0.00001546,-0.00006463,-0.00008894,-0.
 00008726,0.00009283,0.00007870,-0.00001571,0.00006904,0.00006690,-0.01
 082660,-0.01363393,0.02082655,-0.06186343,-0.05123502,0.04915933,-0.01
 605798,-0.00666300,-0.00067005,0.00111415,0.00273749,0.00234082,-0.001
 93599,0.00159907,-0.00093718,-0.00006331,0.00001614,0.00001753,-0.0001
 2457,-0.00025774,0.00030313,0.08298950,0.08090475,0.00135605,-0.002642
 57,-0.00165664,0.00054074,0.00125716,-0.00056312,0.00130957,-0.0011177
 8,0.00001058,0.00749502,-0.01066144,-0.00871258,-0.00216094,-0.0004705
 0,0.00169777,-0.00130539,0.00121283,-0.00143327,-0.00012864,-0.0002830
 8,0.00009389,0.00008388,-0.00015285,0.00006136,0.00005012,-0.00001548,
 -0.00006177,-0.00005309,-0.00006757,-0.00010313,0.01489601,0.01426678,
 -0.01090124,0.07402233,0.06306733,-0.09013627,-0.00991799,-0.00919587,
 0.00861239,-0.00007317,0.00323214,-0.00143041,-0.00304683,0.00086569,-
 0.00349669,0.00003931,-0.00037744,0.00019652,-0.00018631,-0.00005178,0
 .00044752,-0.08273263,-0.05931268,0.10756262,-0.00330128,0.00820345,0.
 00369527,-0.00104922,-0.00119217,0.00081889,-0.00114777,-0.00034396,-0
 .00187339,-0.00107770,0.00376716,0.00227147,0.00143605,0.00031114,-0.0
 0151166,0.00137874,-0.00092672,0.00107256,0.00011017,0.00013286,-0.000
 04470,-0.00012641,0.00009951,-0.00005119,-0.00011266,0.00004000,0.0001
 2711,0.00022193,-0.00012376,0.00016830,-0.11256748,0.02668172,-0.09817
 209,0.00214844,-0.00104121,-0.00316992,0.00226576,-0.00142727,0.001926
 15,-0.03077310,-0.00505085,-0.02183556,-0.00247984,-0.00416553,0.00159
 154,-0.00025510,0.00016542,-0.00056785,-0.00019069,0.00004590,-0.00034
 007,0.00052609,-0.00002390,-0.00018902,0.14499376,0.00560083,-0.010457
 89,-0.00550076,0.00175112,-0.00026696,-0.00134517,0.00055281,0.0002451
 4,0.00221469,0.00176336,-0.00428030,-0.00321686,-0.00135845,-0.0006194
 3,0.00216713,-0.00223442,0.00098013,-0.00147403,-0.00002274,-0.0000812
 1,-0.00001541,-0.00001078,-0.00007959,-0