 Default is to use a total of   8 processors:
                                8 via shared-memory
                                1 via Linda
 Entering Link 1 = C:\G16W\l1.exe PID=     23396.
  
 Copyright (c) 1988-2019, Gaussian, Inc.  All Rights Reserved.
  
 This is part of the Gaussian(R) 16 program.  It is based on
 the Gaussian(R) 09 system (copyright 2009, Gaussian, Inc.),
 the Gaussian(R) 03 system (copyright 2003, Gaussian, Inc.),
 the Gaussian(R) 98 system (copyright 1998, Gaussian, Inc.),
 the Gaussian(R) 94 system (copyright 1995, Gaussian, Inc.),
 the Gaussian 92(TM) system (copyright 1992, Gaussian, Inc.),
 the Gaussian 90(TM) system (copyright 1990, Gaussian, Inc.),
 the Gaussian 88(TM) system (copyright 1988, Gaussian, Inc.),
 the Gaussian 86(TM) system (copyright 1986, Carnegie Mellon
 University), and the Gaussian 82(TM) system (copyright 1983,
 Carnegie Mellon University). Gaussian is a federally registered
 trademark of Gaussian, Inc.
  
 This software contains proprietary and confidential information,
 including trade secrets, belonging to Gaussian, Inc.
  
 This software is provided under written license and may be
 used, copied, transmitted, or stored only in accord with that
 written license.
  
 The following legend is applicable only to US Government
 contracts under FAR:
  
                    RESTRICTED RIGHTS LEGEND
  
 Use, reproduction and disclosure by the US Government is
 subject to restrictions as set forth in subparagraphs (a)
 and (c) of the Commercial Computer Software - Restricted
 Rights clause in FAR 52.227-19.
  
 Gaussian, Inc.
 340 Quinnipiac St., Bldg. 40, Wallingford CT 06492
  
  
 ---------------------------------------------------------------
 Warning -- This program may not be used in any manner that
 competes with the business of Gaussian, Inc. or will provide
 assistance to any competitor of Gaussian, Inc.  The licensee
 of this program is prohibited from giving any competitor of
 Gaussian, Inc. access to this program.  By using this program,
 the user acknowledges that Gaussian, Inc. is engaged in the
 business of creating and licensing software in the field of
 computational chemistry and represents and warrants to the
 licensee that it is not a competitor of Gaussian, Inc. and that
 it will not use this program in any manner prohibited above.
 ---------------------------------------------------------------
  

 Cite this work as:
 Gaussian 16, Revision C.01,
 M. J. Frisch, G. W. Trucks, H. B. Schlegel, G. E. Scuseria, 
 M. A. Robb, J. R. Cheeseman, G. Scalmani, V. Barone, 
 G. A. Petersson, H. Nakatsuji, X. Li, M. Caricato, A. V. Marenich, 
 J. Bloino, B. G. Janesko, R. Gomperts, B. Mennucci, H. P. Hratchian, 
 J. V. Ortiz, A. F. Izmaylov, J. L. Sonnenberg, D. Williams-Young, 
 F. Ding, F. Lipparini, F. Egidi, J. Goings, B. Peng, A. Petrone, 
 T. Henderson, D. Ranasinghe, V. G. Zakrzewski, J. Gao, N. Rega, 
 G. Zheng, W. Liang, M. Hada, M. Ehara, K. Toyota, R. Fukuda, 
 J. Hasegawa, M. Ishida, T. Nakajima, Y. Honda, O. Kitao, H. Nakai, 
 T. Vreven, K. Throssell, J. A. Montgomery, Jr., J. E. Peralta, 
 F. Ogliaro, M. J. Bearpark, J. J. Heyd, E. N. Brothers, K. N. Kudin, 
 V. N. Staroverov, T. A. Keith, R. Kobayashi, J. Normand, 
 K. Raghavachari, A. P. Rendell, J. C. Burant, S. S. Iyengar, 
 J. Tomasi, M. Cossi, J. M. Millam, M. Klene, C. Adamo, R. Cammi, 
 J. W. Ochterski, R. L. Martin, K. Morokuma, O. Farkas, 
 J. B. Foresman, and D. J. Fox, Gaussian, Inc., Wallingford CT, 2019.
 
 ******************************************
 Gaussian 16:  EM64W-G16RevC.01 30-May-2019
                13-Nov-2025 
 ******************************************
 %chk=C:\Users\al6323\OneDrive - Imperial College London\Desktop\TSR20251113\TS(B
 erny)_PM6_endo.chk
 Default route: MaxDisk=10GB
 ----------------------------------------------------------------------
 # opt=(calcfc,tight,ts,modredundant,maxcycles=200,noeigen,maxstep=2) f
 req pm6 nosymm geom=connectivity scf=(xqc,tight)
 ----------------------------------------------------------------------
 1/5=1,6=200,7=10,8=2,10=4,11=1,18=120,26=1,38=1,57=2/1,3;
 2/9=110,12=2,15=1,17=6,18=5,40=1/2;
 3/5=2,25=1,41=3900000,71=2,140=1/1,2,3;
 4/35=1/1;
 5/5=2,8=3,13=1,32=2,35=1,38=5/2,8;
 8/6=4,10=90,11=11/1;
 11/6=1,8=1,9=11,15=111,16=1,31=1/1,2,10;
 10/6=1,13=1,31=1/2;
 6/7=2,8=2,9=2,10=2,28=1/1;
 7/10=1,25=1,30=1/1,2,3,16;
 1/5=1,6=200,7=10,8=2,10=4,11=1,18=20,26=1/3(2);
 2/9=110,15=1/2;
 99//99;
 2/9=110,15=1/2;
 3/5=2,25=1,41=3900000,71=1,135=20/1,2,3;
 4/5=5,16=3,35=1/1;
 5/5=2,8=3,13=1,32=2,35=1,38=5/2,8;
 7/30=1/1,2,3,16;
 1/5=1,6=200,7=10,8=2,11=1,18=20,26=1/3(-5);
 2/9=110,15=1/2;
 6/7=2,8=2,9=2,10=2,19=2,28=1/1;
 99/9=1/99;
 ------------------
 TS(Berny)_PM6_endo
 ------------------
 Symbolic Z-matrix:
 Charge =  0 Multiplicity = 1
 C                    -0.36381   0.9862    0.83261 
 C                     0.84742   1.86496   1.16144 
 C                     0.9834    2.49658  -0.2248 
 C                    -0.37889   2.03679  -0.76439 
 C                    -1.57864   2.4846   -0.22349 
 C                    -1.60108   1.67447   0.9507 
 H                     1.79029   3.009    -0.7057 
 H                    -2.27665   3.21197  -0.58211 
 H                    -2.34534   1.60816   1.71658 
 H                     1.35488   2.04176   2.08671 
 C                    -0.19731  -0.80829  -0.58318 
 C                    -0.24004  -0.06631  -1.74905 
 O                    -1.38966  -0.48391  -2.48294 
 O                    -1.31928  -1.68899  -0.59133 
 C                    -1.39593  -1.84705  -2.01943 
 H                    -2.2794   -2.3706   -2.31987 
 H                    -0.54378  -2.37806  -2.38927 
 H                     0.62533  -0.18147  -2.36774 
 H                     0.69274  -1.38697  -0.44961 
 
 The following ModRedundant input section has been read:
 D       6       1      11      14 F                                           
 

 GradGradGradGradGradGradGradGradGradGradGradGradGradGradGradGradGradGrad
 Berny optimization.
 Initialization pass.
                           ----------------------------
                           !    Initial Parameters    !
                           ! (Angstroms and Degrees)  !
 --------------------------                            --------------------------
 ! Name  Definition              Value          Derivative Info.                !
 --------------------------------------------------------------------------------
 ! R1    R(1,2)                  1.5321         calculate D2E/DX2 analytically  !
 ! R2    R(1,6)                  1.4207         calculate D2E/DX2 analytically  !
 ! R3    R(1,11)                 2.2918         calculate D2E/DX2 analytically  !
 ! R4    R(2,3)                  1.5294         calculate D2E/DX2 analytically  !
 ! R5    R(2,10)                 1.07           calculate D2E/DX2 analytically  !
 ! R6    R(3,4)                  1.5357         calculate D2E/DX2 analytically  !
 ! R7    R(3,7)                  1.07           calculate D2E/DX2 analytically  !
 ! R8    R(4,5)                  1.3901         calculate D2E/DX2 analytically  !
 ! R9    R(4,12)                 2.3263         calculate D2E/DX2 analytically  !
 ! R10   R(5,6)                  1.4267         calculate D2E/DX2 analytically  !
 ! R11   R(5,8)                  1.07           calculate D2E/DX2 analytically  !
 ! R12   R(6,9)                  1.07           calculate D2E/DX2 analytically  !
 ! R13   R(11,12)                1.3826         calculate D2E/DX2 analytically  !
 ! R14   R(11,14)                1.4264         calculate D2E/DX2 analytically  !
 ! R15   R(11,19)                1.07           calculate D2E/DX2 analytically  !
 ! R16   R(12,13)                1.4264         calculate D2E/DX2 analytically  !
 ! R17   R(12,18)                1.07           calculate D2E/DX2 analytically  !
 ! R18   R(13,15)                1.4398         calculate D2E/DX2 analytically  !
 ! R19   R(14,15)                1.4389         calculate D2E/DX2 analytically  !
 ! R20   R(15,16)                1.07           calculate D2E/DX2 analytically  !
 ! R21   R(15,17)                1.07           calculate D2E/DX2 analytically  !
 ! A1    A(2,1,6)              113.1268         calculate D2E/DX2 analytically  !
 ! A2    A(2,1,11)             121.6172         calculate D2E/DX2 analytically  !
 ! A3    A(6,1,11)             119.6002         calculate D2E/DX2 analytically  !
 ! A4    A(1,2,3)               96.4664         calculate D2E/DX2 analytically  !
 ! A5    A(1,2,10)             130.9417         calculate D2E/DX2 analytically  !
 ! A6    A(3,2,10)             132.3291         calculate D2E/DX2 analytically  !
 ! A7    A(2,3,4)               96.6587         calculate D2E/DX2 analytically  !
 ! A8    A(2,3,7)              132.2358         calculate D2E/DX2 analytically  !
 ! A9    A(4,3,7)              130.8751         calculate D2E/DX2 analytically  !
 ! A10   A(3,4,5)              122.169          calculate D2E/DX2 analytically  !
 ! A11   A(3,4,12)             111.4963         calculate D2E/DX2 analytically  !
 ! A12   A(5,4,12)             120.4924         calculate D2E/DX2 analytically  !
 ! A13   A(4,5,6)               98.6783         calculate D2E/DX2 analytically  !
 ! A14   A(4,5,8)              130.6602         calculate D2E/DX2 analytically  !
 ! A15   A(6,5,8)              130.6606         calculate D2E/DX2 analytically  !
 ! A16   A(1,6,5)              101.1267         calculate D2E/DX2 analytically  !
 ! A17   A(1,6,9)              129.436          calculate D2E/DX2 analytically  !
 ! A18   A(5,6,9)              129.4361         calculate D2E/DX2 analytically  !
 ! A19   A(1,11,12)             95.6514         calculate D2E/DX2 analytically  !
 ! A20   A(1,11,14)            115.4573         calculate D2E/DX2 analytically  !
 ! A21   A(1,11,19)            114.003          calculate D2E/DX2 analytically  !
 ! A22   A(12,11,14)           107.5911         calculate D2E/DX2 analytically  !
 ! A23   A(12,11,19)           114.9106         calculate D2E/DX2 analytically  !
 ! A24   A(14,11,19)           108.729          calculate D2E/DX2 analytically  !
 ! A25   A(4,12,11)             97.4743         calculate D2E/DX2 analytically  !
 ! A26   A(4,12,13)            115.7432         calculate D2E/DX2 analytically  !
 ! A27   A(4,12,18)            112.974          calculate D2E/DX2 analytically  !
 ! A28   A(11,12,13)           107.5563         calculate D2E/DX2 analytically  !
 ! A29   A(11,12,18)           113.8796         calculate D2E/DX2 analytically  !
 ! A30   A(13,12,18)           108.8338         calculate D2E/DX2 analytically  !
 ! A31   A(12,13,15)            96.6068         calculate D2E/DX2 analytically  !
 ! A32   A(11,14,15)            96.6263         calculate D2E/DX2 analytically  !
 ! A33   A(13,15,14)           102.4324         calculate D2E/DX2 analytically  !
 ! A34   A(13,15,16)           112.114          calculate D2E/DX2 analytically  !
 ! A35   A(13,15,17)           110.8005         calculate D2E/DX2 analytically  !
 ! A36   A(14,15,16)           112.112          calculate D2E/DX2 analytically  !
 ! A37   A(14,15,17)           110.8025         calculate D2E/DX2 analytically  !
 ! A38   A(16,15,17)           108.5228         calculate D2E/DX2 analytically  !
 ! D1    D(6,1,2,3)            -84.2509         calculate D2E/DX2 analytically  !
 ! D2    D(6,1,2,10)            90.3067         calculate D2E/DX2 analytically  !
 ! D3    D(11,1,2,3)            69.0847         calculate D2E/DX2 analytically  !
 ! D4    D(11,1,2,10)         -116.3577         calculate D2E/DX2 analytically  !
 ! D5    D(2,1,6,5)             74.7551         calculate D2E/DX2 analytically  !
 ! D6    D(2,1,6,9)           -104.8738         calculate D2E/DX2 analytically  !
 ! D7    D(11,1,6,5)           -79.1721         calculate D2E/DX2 analytically  !
 ! D8    D(11,1,6,9)           101.199          calculate D2E/DX2 analytically  !
 ! D9    D(2,1,11,12)          -79.5291         calculate D2E/DX2 analytically  !
 ! D10   D(2,1,11,14)          167.9223         calculate D2E/DX2 analytically  !
 ! D11   D(2,1,11,19)           40.9612         calculate D2E/DX2 analytically  !
 ! D12   D(6,1,11,12)           72.1347         calculate D2E/DX2 analytically  !
 ! D13   D(6,1,11,14)          -40.4139         frozen, calculate D2E/DX2 analyt!
 ! D14   D(6,1,11,19)         -167.375          calculate D2E/DX2 analytically  !
 ! D15   D(1,2,3,4)             13.0432         calculate D2E/DX2 analytically  !
 ! D16   D(1,2,3,7)           -161.7495         calculate D2E/DX2 analytically  !
 ! D17   D(10,2,3,4)          -161.3956         calculate D2E/DX2 analytically  !
 ! D18   D(10,2,3,7)            23.8117         calculate D2E/DX2 analytically  !
 ! D19   D(2,3,4,5)             64.7905         calculate D2E/DX2 analytically  !
 ! D20   D(2,3,4,12)           -88.3326         calculate D2E/DX2 analytically  !
 ! D21   D(7,3,4,5)           -120.3081         calculate D2E/DX2 analytically  !
 ! D22   D(7,3,4,12)            86.5688         calculate D2E/DX2 analytically  !
 ! D23   D(3,4,5,6)            -77.1888         calculate D2E/DX2 analytically  !
 ! D24   D(3,4,5,8)            103.1427         calculate D2E/DX2 analytically  !
 ! D25   D(12,4,5,6)            73.5928         calculate D2E/DX2 analytically  !
 ! D26   D(12,4,5,8)          -106.0758         calculate D2E/DX2 analytically  !
 ! D27   D(3,4,12,11)           76.798          calculate D2E/DX2 analytically  !
 ! D28   D(3,4,12,13)         -169.5606         calculate D2E/DX2 analytically  !
 ! D29   D(3,4,12,18)          -43.141          calculate D2E/DX2 analytically  !
 ! D30   D(5,4,12,11)          -76.8367         calculate D2E/DX2 analytically  !
 ! D31   D(5,4,12,13)           36.8047         calculate D2E/DX2 analytically  !
 ! D32   D(5,4,12,18)          163.2243         calculate D2E/DX2 analytically  !
 ! D33   D(4,5,6,1)              2.4227         calculate D2E/DX2 analytically  !
 ! D34   D(4,5,6,9)           -177.9484         calculate D2E/DX2 analytically  !
 ! D35   D(8,5,6,1)           -177.9087         calculate D2E/DX2 analytically  !
 ! D36   D(8,5,6,9)              1.7202         calculate D2E/DX2 analytically  !
 ! D37   D(1,11,12,4)            1.1446         calculate D2E/DX2 analytically  !
 ! D38   D(1,11,12,13)        -118.9196         calculate D2E/DX2 analytically  !
 ! D39   D(1,11,12,18)         120.3927         calculate D2E/DX2 analytically  !
 ! D40   D(14,11,12,4)         120.1244         calculate D2E/DX2 analytically  !
 ! D41   D(14,11,12,13)          0.0603         calculate D2E/DX2 analytically  !
 ! D42   D(14,11,12,18)       -120.6275         calculate D2E/DX2 analytically  !
 ! D43   D(19,11,12,4)        -118.6347         calculate D2E/DX2 analytically  !
 ! D44   D(19,11,12,13)        121.3012         calculate D2E/DX2 analytically  !
 ! D45   D(19,11,12,18)          0.6135         calculate D2E/DX2 analytically  !
 ! D46   D(1,11,14,15)         136.048          calculate D2E/DX2 analytically  !
 ! D47   D(12,11,14,15)         30.6603         calculate D2E/DX2 analytically  !
 ! D48   D(19,11,14,15)        -94.3741         calculate D2E/DX2 analytically  !
 ! D49   D(4,12,13,15)        -138.4293         calculate D2E/DX2 analytically  !
 ! D50   D(11,12,13,15)        -30.7296         calculate D2E/DX2 analytically  !
 ! D51   D(18,12,13,15)         93.0862         calculate D2E/DX2 analytically  !
 ! D52   D(12,13,15,14)         50.9976         calculate D2E/DX2 analytically  !
 ! D53   D(12,13,15,16)        171.3718         calculate D2E/DX2 analytically  !
 ! D54   D(12,13,15,17)        -67.2171         calculate D2E/DX2 analytically  !
 ! D55   D(11,14,15,13)        -50.9594         calculate D2E/DX2 analytically  !
 ! D56   D(11,14,15,16)       -171.3349         calculate D2E/DX2 analytically  !
 ! D57   D(11,14,15,17)         67.254          calculate D2E/DX2 analytically  !
 --------------------------------------------------------------------------------
 Trust Radius=2.00D-02 FncErr=1.00D-07 GrdErr=1.00D-07 EigMax=2.50D+02 EigMin=1.00D-04
 Number of steps in this run=    114 maximum allowed number of steps=    114.
 Search for a saddle point of order  1.
 GradGradGradGradGradGradGradGradGradGradGradGradGradGradGradGradGradGrad

                          Input orientation:                          
 ---------------------------------------------------------------------
 Center     Atomic      Atomic             Coordinates (Angstroms)
 Number     Number       Type             X           Y           Z
 ---------------------------------------------------------------------
      1          6           0       -0.363815    0.986203    0.832607
      2          6           0        0.847425    1.864964    1.161441
      3          6           0        0.983404    2.496581   -0.224801
      4          6           0       -0.378892    2.036786   -0.764395
      5          6           0       -1.578639    2.484597   -0.223491
      6          6           0       -1.601076    1.674475    0.950696
      7          1           0        1.790293    3.008998   -0.705695
      8          1           0       -2.276650    3.211971   -0.582110
      9          1           0       -2.345338    1.608159    1.716579
     10          1           0        1.354885    2.041759    2.086713
     11          6           0       -0.197306   -0.808288   -0.583177
     12          6           0       -0.240037   -0.066308   -1.749053
     13          8           0       -1.389663   -0.483913   -2.482937
     14          8           0       -1.319282   -1.688989   -0.591325
     15          6           0       -1.395926   -1.847046   -2.019430
     16          1           0       -2.279398   -2.370602   -2.319873
     17          1           0       -0.543784   -2.378059   -2.389265
     18          1           0        0.625331   -0.181473   -2.367741
     19          1           0        0.692744   -1.386968   -0.449607
 ---------------------------------------------------------------------
                    Distance matrix (angstroms):
                    1          2          3          4          5
     1  C    0.000000
     2  C    1.532141   0.000000
     3  C    2.283496   1.529411   0.000000
     4  C    1.911640   2.289589   1.535716   0.000000
     5  C    2.199165   2.861427   2.562072   1.390145   0.000000
     6  C    1.420732   2.464925   2.955874   2.136946   1.426715
     7  H    3.331405   2.384117   1.070000   2.377815   3.443432
     8  H    3.257976   3.822858   3.356695   2.239592   1.070000
     9  H    2.257137   3.250824   3.954589   3.194661   2.262706
    10  H    2.375060   1.070000   2.384944   3.336888   3.760147
    11  C    2.291804   3.358784   3.527700   2.856617   3.588947
    12  C    2.790711   3.658328   3.223128   2.326336   3.259802
    13  O    3.769143   4.878860   4.428766   3.213872   3.735353
    14  O    3.177602   4.516347   4.791211   3.846517   4.197784
    15  C    4.150502   5.378622   5.267732   4.206379   4.692750
    16  H    4.987557   6.311623   6.222915   5.045444   5.334682
    17  H    4.661663   5.704929   5.547911   4.707255   5.422815
    18  H    3.547408   4.085628   3.448533   2.915451   4.069794
    19  H    2.896952   3.632419   3.900894   3.601332   4.494366
                    6          7          8          9         10
     6  C    0.000000
     7  H    4.003245   0.000000
     8  H    2.273717   4.073880   0.000000
     9  H    1.070000   4.993316   2.803730   0.000000
    10  H    3.187967   2.987084   4.656185   3.743882   0.000000
    11  C    3.238433   4.305488   4.526163   3.967636   4.202425
    12  C    3.488753   3.829927   4.031954   4.387110   4.658414
    13  O    4.061179   5.046894   4.249641   4.788112   5.898582
    14  O    3.710813   5.635035   4.993601   4.153360   5.314277
    15  C    4.611382   5.954750   5.332467   5.176638   6.288893
    16  H    5.245893   6.935997   5.846789   5.668142   7.217683
    17  H    5.356887   6.107594   6.125118   5.999457   6.570701
    18  H    4.406070   3.781354   4.808891   5.358108   5.031617
    19  H    4.073683   4.538140   5.475865   4.784672   4.315961
                   11         12         13         14         15
    11  C    0.000000
    12  C    1.382615   0.000000
    13  O    2.266279   1.426401   0.000000
    14  O    1.426370   2.266759   2.243960   0.000000
    15  C    2.139750   2.140142   1.439794   1.438868   0.000000
    16  H    3.129225   3.129632   2.092322   2.091482   1.070000
    17  H    2.417888   2.417918   2.076553   2.075765   1.070000
    18  H    2.062594   1.070000   2.040819   3.034761   2.642145
    19  H    1.070000   2.074315   3.047352   2.039497   2.653028
                   16         17         18         19
    16  H    0.000000
    17  H    1.737017   0.000000
    18  H    3.637585   2.488430   0.000000
    19  H    3.646787   2.504702   2.266495   0.000000
 Symmetry turned off by external request.
 Stoichiometry    C9H8O2
 Framework group  C1[X(C9H8O2)]
 Deg. of freedom    51
 Full point group                 C1      NOp   1
 Rotational constants (GHZ):           2.3501790           0.8156977           0.8085081
 Standard basis: VSTO-6G (5D, 7F)
    52 basis functions,   312 primitive gaussians,    52 cartesian basis functions
    28 alpha electrons       28 beta electrons
       nuclear repulsion energy       328.8671658127 Hartrees.
 Integral buffers will be    131072 words long.
 Regular integral format.
 Two-electron integral symmetry is turned off.
 Do NDO integrals.
 One-electron integrals computed using PRISM.
 NBasis=    52 RedAO= F EigKep=  0.00D+00  NBF=    52
 NBsUse=    52 1.00D-04 EigRej=  0.00D+00 NBFU=    52
 Simple Huckel Guess.
 Keep J ints in memory in canonical form, NReq=867036.
 Overlap will be assumed to be unity.
 Requested convergence on RMS density matrix=1.00D-08 within  32 cycles.
 Requested convergence on MAX density matrix=1.00D-06.
 Requested convergence on             energy=1.00D-06.
 No special actions if energy rises.
 SCF Done:  E(RPM6) =  0.383682336286     A.U. after   23 cycles
            NFock= 22  Conv=0.98D-08     -V/T= 1.0036
 QCSCF skips out because SCF is already converged.
 Range of M.O.s used for correlation:     1    52
 NBasis=    52 NAE=    28 NBE=    28 NFC=     0 NFV=     0
 NROrb=     52 NOA=    28 NOB=    28 NVA=    24 NVB=    24
 Symmetrizing basis deriv contribution to polar:
 IMax=3 JMax=2 DiffMx= 0.00D+00
 G2DrvN: will do    20 centers at a time, making    1 passes.
 Calling FoFCou, ICntrl=  3107 FMM=F I1Cent=   0 AccDes= 0.00D+00.
 End of G2Drv F.D. properties file   721 does not exist.
 End of G2Drv F.D. properties file   722 does not exist.
 End of G2Drv F.D. properties file   788 does not exist.
          IDoAtm=1111111111111111111
          Differentiating once with respect to nuclear coordinates.
          Electric field/nuclear overlap derivatives assumed to be zero.
 Keep J ints in memory in canonical form, NReq=869000.
          There are    60 degrees of freedom in the 1st order CPHF.  IDoFFX=5 NUNeed=    60.
 LinEq1:  Iter=  0 NonCon=    57 RMS=1.29D-02 Max=9.78D-02 NDo=    57
 AX will form    60 AO Fock derivatives at one time.
 LinEq1:  Iter=  1 NonCon=    57 RMS=2.38D-03 Max=2.52D-02 NDo=    60
 LinEq1:  Iter=  2 NonCon=    57 RMS=8.90D-04 Max=1.08D-02 NDo=    60
 LinEq1:  Iter=  3 NonCon=    57 RMS=3.24D-04 Max=3.78D-03 NDo=    60
 LinEq1:  Iter=  4 NonCon=    57 RMS=9.14D-05 Max=9.82D-04 NDo=    60
 LinEq1:  Iter=  5 NonCon=    57 RMS=1.91D-05 Max=2.20D-04 NDo=    60
 LinEq1:  Iter=  6 NonCon=    57 RMS=4.96D-06 Max=5.30D-05 NDo=    60
 LinEq1:  Iter=  7 NonCon=    57 RMS=1.20D-06 Max=1.20D-05 NDo=    60
 LinEq1:  Iter=  8 NonCon=    55 RMS=2.59D-07 Max=2.33D-06 NDo=    60
 LinEq1:  Iter=  9 NonCon=    36 RMS=5.68D-08 Max=6.27D-07 NDo=    60
 LinEq1:  Iter= 10 NonCon=     1 RMS=1.13D-08 Max=7.48D-08 NDo=    36
 LinEq1:  Iter= 11 NonCon=     0 RMS=2.18D-09 Max=1.71D-08 NDo=     1
 Linear equations converged to 1.000D-08 1.000D-07 after    11 iterations.
 End of Minotr F.D. properties file   721 does not exist.
 End of Minotr F.D. properties file   722 does not exist.
 End of Minotr F.D. properties file   788 does not exist.

 **********************************************************************

            Population analysis using the SCF Density.

 **********************************************************************

 Alpha  occ. eigenvalues --   -1.21191  -1.10942  -1.06808  -0.97000  -0.92991
 Alpha  occ. eigenvalues --   -0.90039  -0.83793  -0.76765  -0.74083  -0.73203
 Alpha  occ. eigenvalues --   -0.66628  -0.63535  -0.60031  -0.58571  -0.58429
 Alpha  occ. eigenvalues --   -0.57546  -0.56207  -0.50341  -0.49374  -0.49028
 Alpha  occ. eigenvalues --   -0.47417  -0.46121  -0.42147  -0.40092  -0.34662
 Alpha  occ. eigenvalues --   -0.34171  -0.33737  -0.31194
 Alpha virt. eigenvalues --   -0.03276  -0.02856   0.00474   0.02829   0.05750
 Alpha virt. eigenvalues --    0.07575   0.08286   0.10800   0.13742   0.14100
 Alpha virt. eigenvalues --    0.14407   0.16035   0.16265   0.16804   0.17363
 Alpha virt. eigenvalues --    0.17518   0.18663   0.18832   0.19898   0.20142
 Alpha virt. eigenvalues --    0.21488   0.21684   0.22033   0.22684
          Condensed to atoms (all electrons):
               1          2          3          4          5          6
     1  C    4.074959   0.000000   0.000000   0.000000   0.000000   0.000000
     2  C    0.000000   4.144591   0.000000   0.000000   0.000000   0.000000
     3  C    0.000000   0.000000   4.129516   0.000000   0.000000   0.000000
     4  C    0.000000   0.000000   0.000000   4.006520   0.000000   0.000000
     5  C    0.000000   0.000000   0.000000   0.000000   4.181810   0.000000
     6  C    0.000000   0.000000   0.000000   0.000000   0.000000   4.078740
     7  H    0.000000   0.000000   0.000000   0.000000   0.000000   0.000000
     8  H    0.000000   0.000000   0.000000   0.000000   0.000000   0.000000
     9  H    0.000000   0.000000   0.000000   0.000000   0.000000   0.000000
    10  H    0.000000   0.000000   0.000000   0.000000   0.000000   0.000000
    11  C    0.000000   0.000000   0.000000   0.000000   0.000000   0.000000
    12  C    0.000000   0.000000   0.000000   0.000000   0.000000   0.000000
    13  O    0.000000   0.000000   0.000000   0.000000   0.000000   0.000000
    14  O    0.000000   0.000000   0.000000   0.000000   0.000000   0.000000
    15  C    0.000000   0.000000   0.000000   0.000000   0.000000   0.000000
    16  H    0.000000   0.000000   0.000000   0.000000   0.000000   0.000000
    17  H    0.000000   0.000000   0.000000   0.000000   0.000000   0.000000
    18  H    0.000000   0.000000   0.000000   0.000000   0.000000   0.000000
    19  H    0.000000   0.000000   0.000000   0.000000   0.000000   0.000000
               7          8          9         10         11         12
     1  C    0.000000   0.000000   0.000000   0.000000   0.000000   0.000000
     2  C    0.000000   0.000000   0.000000   0.000000   0.000000   0.000000
     3  C    0.000000   0.000000   0.000000   0.000000   0.000000   0.000000
     4  C    0.000000   0.000000   0.000000   0.000000   0.000000   0.000000
     5  C    0.000000   0.000000   0.000000   0.000000   0.000000   0.000000
     6  C    0.000000   0.000000   0.000000   0.000000   0.000000   0.000000
     7  H    0.843684   0.000000   0.000000   0.000000   0.000000   0.000000
     8  H    0.000000   0.833150   0.000000   0.000000   0.000000   0.000000
     9  H    0.000000   0.000000   0.849564   0.000000   0.000000   0.000000
    10  H    0.000000   0.000000   0.000000   0.842725   0.000000   0.000000
    11  C    0.000000   0.000000   0.000000   0.000000   3.922583   0.000000
    12  C    0.000000   0.000000   0.000000   0.000000   0.000000   4.028209
    13  O    0.000000   0.000000   0.000000   0.000000   0.000000   0.000000
    14  O    0.000000   0.000000   0.000000   0.000000   0.000000   0.000000
    15  C    0.000000   0.000000   0.000000   0.000000   0.000000   0.000000
    16  H    0.000000   0.000000   0.000000   0.000000   0.000000   0.000000
    17  H    0.000000   0.000000   0.000000   0.000000   0.000000   0.000000
    18  H    0.000000   0.000000   0.000000   0.000000   0.000000   0.000000
    19  H    0.000000   0.000000   0.000000   0.000000   0.000000   0.000000
              13         14         15         16         17         18
     1  C    0.000000   0.000000   0.000000   0.000000   0.000000   0.000000
     2  C    0.000000   0.000000   0.000000   0.000000   0.000000   0.000000
     3  C    0.000000   0.000000   0.000000   0.000000   0.000000   0.000000
     4  C    0.000000   0.000000   0.000000   0.000000   0.000000   0.000000
     5  C    0.000000   0.000000   0.000000   0.000000   0.000000   0.000000
     6  C    0.000000   0.000000   0.000000   0.000000   0.000000   0.000000
     7  H    0.000000   0.000000   0.000000   0.000000   0.000000   0.000000
     8  H    0.000000   0.000000   0.000000   0.000000   0.000000   0.000000
     9  H    0.000000   0.000000   0.000000   0.000000   0.000000   0.000000
    10  H    0.000000   0.000000   0.000000   0.000000   0.000000   0.000000
    11  C    0.000000   0.000000   0.000000   0.000000   0.000000   0.000000
    12  C    0.000000   0.000000   0.000000   0.000000   0.000000   0.000000
    13  O    6.389939   0.000000   0.000000   0.000000   0.000000   0.000000
    14  O    0.000000   6.399591   0.000000   0.000000   0.000000   0.000000
    15  C    0.000000   0.000000   3.832065   0.000000   0.000000   0.000000
    16  H    0.000000   0.000000   0.000000   0.851961   0.000000   0.000000
    17  H    0.000000   0.000000   0.000000   0.000000   0.902967   0.000000
    18  H    0.000000   0.000000   0.000000   0.000000   0.000000   0.842758
    19  H    0.000000   0.000000   0.000000   0.000000   0.000000   0.000000
              19
     1  C    0.000000
     2  C    0.000000
     3  C    0.000000
     4  C    0.000000
     5  C    0.000000
     6  C    0.000000
     7  H    0.000000
     8  H    0.000000
     9  H    0.000000
    10  H    0.000000
    11  C    0.000000
    12  C    0.000000
    13  O    0.000000
    14  O    0.000000
    15  C    0.000000
    16  H    0.000000
    17  H    0.000000
    18  H    0.000000
    19  H    0.844666
 Mulliken charges:
               1
     1  C   -0.074959
     2  C   -0.144591
     3  C   -0.129516
     4  C   -0.006520
     5  C   -0.181810
     6  C   -0.078740
     7  H    0.156316
     8  H    0.166850
     9  H    0.150436
    10  H    0.157275
    11  C    0.077417
    12  C   -0.028209
    13  O   -0.389939
    14  O   -0.399591
    15  C    0.167935
    16  H    0.148039
    17  H    0.097033
    18  H    0.157242
    19  H    0.155334
 Sum of Mulliken charges =   0.00000
 Mulliken charges with hydrogens summed into heavy atoms:
               1
     1  C   -0.074959
     2  C    0.012683
     3  C    0.026800
     4  C   -0.006520
     5  C   -0.014961
     6  C    0.071696
    11  C    0.232751
    12  C    0.129034
    13  O   -0.389939
    14  O   -0.399591
    15  C    0.413006
 APT charges:
               1
     1  C   -0.074959
     2  C   -0.144591
     3  C   -0.129516
     4  C   -0.006520
     5  C   -0.181810
     6  C   -0.078740
     7  H    0.156316
     8  H    0.166850
     9  H    0.150436
    10  H    0.157275
    11  C    0.077417
    12  C   -0.028209
    13  O   -0.389939
    14  O   -0.399591
    15  C    0.167935
    16  H    0.148039
    17  H    0.097033
    18  H    0.157242
    19  H    0.155334
 Sum of APT charges =   0.00000
 APT charges with hydrogens summed into heavy atoms:
               1
     1  C   -0.074959
     2  C    0.012683
     3  C    0.026800
     4  C   -0.006520
     5  C   -0.014961
     6  C    0.071696
    11  C    0.232751
    12  C    0.129034
    13  O   -0.389939
    14  O   -0.399591
    15  C    0.413006
 Charge=              0.0000 electrons
 Dipole moment (field-independent basis, Debye):
    X=              2.2164    Y=             -0.4020    Z=             -0.1247  Tot=              2.2560
 N-N= 3.288671658127D+02 E-N=-5.147749480397D+02  KE=-1.060711128843D+02
  Exact polarizability:       0.000       0.000       0.000       0.000       0.000       0.000
 Approx polarizability:      60.893       4.204      94.524       0.355     -11.026     107.330
 Calling FoFJK, ICntrl=    100127 FMM=F ISym2X=0 I1Cent= 0 IOpClX= 0 NMat=1 NMatS=1 NMatT=0.
 -------------------------------------------------------------------
 Center     Atomic                   Forces (Hartrees/Bohr)
 Number     Number              X              Y              Z
 -------------------------------------------------------------------
      1        6           0.048363706    0.084052512   -0.045744622
      2        6          -0.022173117   -0.007933522   -0.118144213
      3        6          -0.059702409   -0.071318528    0.064427266
      4        6           0.095370077   -0.027639023    0.074747549
      5        6          -0.026467193   -0.023818500    0.012775072
      6        6          -0.019857688   -0.000994333   -0.015753498
      7        1          -0.008397391   -0.002517687    0.005518385
      8        1          -0.000576398   -0.000968818   -0.000296319
      9        1          -0.001794872   -0.001102938   -0.000031810
     10        1          -0.001799788   -0.004358245   -0.009906029
     11        6           0.005976826    0.003381382    0.032629580
     12        6           0.006421886    0.029112538   -0.016954192
     13        8           0.000766072    0.013728066   -0.009854817
     14        8           0.002720243   -0.002984483    0.019858744
     15        6          -0.039465038   -0.016880019   -0.012508111
     16        1          -0.017063719    0.001266483    0.001541998
     17        1           0.015508940   -0.011812982   -0.007857180
     18        1           0.010366925    0.034545160   -0.011474938
     19        1           0.011802937    0.006242935    0.037027133
 -------------------------------------------------------------------
 Cartesian Forces:  Max     0.118144213 RMS     0.033838570
 FormGI is forming the generalized inverse of G from B-inverse, IUseBI=4.

 GradGradGradGradGradGradGradGradGradGradGradGradGradGradGradGradGradGrad
 Berny optimization.
 Internal  Forces:  Max     0.111278731 RMS     0.019727263
 Search for a saddle point.
 Step number   1 out of a maximum of  114
 All quantities printed in internal units (Hartrees-Bohrs-Radians)
 Swapping is turned off.
 Second derivative matrix not updated -- analytic derivatives used.
 ITU=  0
     Eigenvalues ---   -0.12097  -0.01524  -0.00965  -0.00191   0.00103
     Eigenvalues ---    0.00730   0.00820   0.00902   0.01293   0.01558
     Eigenvalues ---    0.01828   0.02551   0.02799   0.03114   0.03307
     Eigenvalues ---    0.03590   0.03990   0.04062   0.04898   0.05441
     Eigenvalues ---    0.05951   0.06282   0.07067   0.08303   0.08336
     Eigenvalues ---    0.08651   0.08702   0.08776   0.10642   0.13798
     Eigenvalues ---    0.16714   0.17871   0.21313   0.23685   0.24795
     Eigenvalues ---    0.25818   0.26679   0.26808   0.26905   0.27185
     Eigenvalues ---    0.27421   0.27470   0.30333   0.31962   0.32258
     Eigenvalues ---    0.32884   0.36283   0.42289   0.56266   0.58815
     Eigenvalues --- 1000.000001000.000001000.000001000.000001000.00000
     Eigenvalues --- 1000.000001000.000001000.000001000.000001000.00000
     Eigenvalues --- 1000.000001000.000001000.000001000.000001000.00000
     Eigenvalues --- 1000.000001000.000001000.000001000.000001000.00000
     Eigenvalues --- 1000.000001000.000001000.000001000.000001000.00000
     Eigenvalues --- 1000.000001000.000001000.000001000.000001000.00000
     Eigenvalues --- 1000.000001000.000001000.000001000.000001000.00000
     Eigenvalues --- 1000.000001000.000001000.000001000.000001000.00000
     Eigenvalues --- 1000.000001000.000001000.000001000.000001000.00000
     Eigenvalues --- 1000.000001000.000001000.000001000.000001000.00000
     Eigenvalues --- 1000.000001000.000001000.000001000.000001000.00000
     Eigenvalues --- 1000.000001000.000001000.000001000.000001000.00000
     Eigenvalues --- 1000.000001000.000001000.000001000.000001000.00000
     Eigenvalues --- 1000.00000
 Eigenvectors required to have negative eigenvalues:
                          R3        R9        R13       R4        R6
   1                    0.67944   0.64979  -0.12627   0.08960  -0.08688
                          R10       A10       R1        R8        R2
   1                    0.08487   0.08337  -0.07792  -0.07726  -0.07695
 RFO step:  Lambda0=1.010887957D-02 Lambda=-1.32272846D-01.
 Linear search not attempted -- option 19 set.
 Maximum step size (   0.020) exceeded in Quadratic search.
    -- Step size scaled by   0.033
 Iteration  1 RMS(Cart)=  0.00355019 RMS(Int)=  0.00001238
 Iteration  2 RMS(Cart)=  0.00001475 RMS(Int)=  0.00000702
 Iteration  3 RMS(Cart)=  0.00000000 RMS(Int)=  0.00000702
 Iteration  1 RMS(Cart)=  0.00000033 RMS(Int)=  0.00000037
 Variable       Old X    -DE/DX   Delta X   Delta X   Delta X     New X
                                 (Linear)    (Quad)   (Total)
    R1        2.89533  -0.06507   0.00000  -0.00583  -0.00583   2.88950
    R2        2.68479   0.00108   0.00000   0.00026   0.00026   2.68505
    R3        4.33088  -0.03400   0.00000   0.00151   0.00151   4.33239
    R4        2.89017  -0.11128   0.00000  -0.00755  -0.00756   2.88261
    R5        2.02201  -0.01014   0.00000  -0.00026  -0.00026   2.02174
    R6        2.90208  -0.07193   0.00000  -0.00690  -0.00690   2.89518
    R7        2.02201  -0.01002   0.00000  -0.00032  -0.00032   2.02168
    R8        2.62699   0.01630   0.00000   0.00090   0.00090   2.62789
    R9        4.39614  -0.03826   0.00000   0.00525   0.00525   4.40139
   R10        2.69610  -0.05630   0.00000  -0.00196  -0.00195   2.69415
   R11        2.02201  -0.00018   0.00000  -0.00016  -0.00016   2.02185
   R12        2.02201   0.00129   0.00000  -0.00003  -0.00003   2.02198
   R13        2.61276   0.01673   0.00000  -0.00081  -0.00081   2.61196
   R14        2.69545   0.01775   0.00000   0.00011   0.00012   2.69556
   R15        2.02201   0.01106   0.00000   0.00060   0.00060   2.02261
   R16        2.69551   0.01822   0.00000   0.00053   0.00053   2.69603
   R17        2.02201   0.01130   0.00000   0.00038   0.00038   2.02239
   R18        2.72082   0.02725   0.00000   0.00151   0.00151   2.72233
   R19        2.71907   0.03112   0.00000   0.00198   0.00198   2.72105
   R20        2.02201   0.01304   0.00000   0.00073   0.00073   2.02273
   R21        2.02201   0.02093   0.00000   0.00138   0.00138   2.02339
    A1        1.97444   0.03385   0.00000   0.00629   0.00629   1.98073
    A2        2.12262  -0.02827   0.00000  -0.00168  -0.00168   2.12094
    A3        2.08742   0.00107   0.00000  -0.00330  -0.00331   2.08411
    A4        1.68366   0.00878   0.00000  -0.00007  -0.00007   1.68359
    A5        2.28536  -0.00421   0.00000   0.00026   0.00026   2.28562
    A6        2.30958  -0.00537   0.00000  -0.00034  -0.00033   2.30924
    A7        1.68701   0.00382   0.00000  -0.00091  -0.00092   1.68610
    A8        2.30795  -0.00112   0.00000   0.00036   0.00036   2.30831
    A9        2.28420  -0.00250   0.00000   0.00056   0.00057   2.28477
   A10        2.13225   0.02592   0.00000   0.00648   0.00649   2.13875
   A11        1.94598  -0.01436   0.00000   0.00194   0.00194   1.94792
   A12        2.10299  -0.00477   0.00000  -0.00553  -0.00556   2.09743
   A13        1.72226  -0.00334   0.00000  -0.00206  -0.00206   1.72020
   A14        2.28045   0.00192   0.00000   0.00121   0.00121   2.28166
   A15        2.28046   0.00149   0.00000   0.00086   0.00086   2.28132
   A16        1.76499  -0.01292   0.00000  -0.00220  -0.00221   1.76278
   A17        2.25908   0.00676   0.00000   0.00126   0.00126   2.26034
   A18        2.25909   0.00610   0.00000   0.00094   0.00094   2.26003
   A19        1.66943  -0.00819   0.00000   0.00148   0.00147   1.67091
   A20        2.01511  -0.00109   0.00000  -0.00204  -0.00203   2.01308
   A21        1.98973  -0.00982   0.00000  -0.00342  -0.00343   1.98630
   A22        1.87782  -0.00184   0.00000   0.00122   0.00121   1.87903
   A23        2.00557   0.01109   0.00000   0.00265   0.00266   2.00823
   A24        1.89768   0.00884   0.00000   0.00057   0.00056   1.89824
   A25        1.70125  -0.01607   0.00000  -0.00453  -0.00454   1.69671
   A26        2.02010   0.00343   0.00000   0.00126   0.00125   2.02135
   A27        1.97177  -0.00930   0.00000  -0.00148  -0.00147   1.97030
   A28        1.87721  -0.00102   0.00000  -0.00014  -0.00015   1.87706
   A29        1.98757   0.01434   0.00000   0.00275   0.00275   1.99033
   A30        1.89951   0.00775   0.00000   0.00181   0.00181   1.90131
   A31        1.68611   0.01411   0.00000   0.00099   0.00100   1.68710
   A32        1.68645   0.01431   0.00000   0.00069   0.00070   1.68714
   A33        1.78778  -0.01482   0.00000  -0.00035  -0.00035   1.78743
   A34        1.95676   0.00513   0.00000   0.00015   0.00015   1.95691
   A35        1.93383   0.00008   0.00000  -0.00046  -0.00046   1.93337
   A36        1.95672   0.00488   0.00000  -0.00005  -0.00005   1.95668
   A37        1.93387  -0.00014   0.00000  -0.00060  -0.00060   1.93327
   A38        1.89408   0.00409   0.00000   0.00118   0.00118   1.89526
    D1       -1.47046   0.00230   0.00000   0.00057   0.00056  -1.46989
    D2        1.57615  -0.00615   0.00000  -0.00096  -0.00097   1.57518
    D3        1.20576   0.01859   0.00000   0.00271   0.00271   1.20847
    D4       -2.03082   0.01015   0.00000   0.00118   0.00118  -2.02965
    D5        1.30472  -0.01183   0.00000   0.00089   0.00090   1.30563
    D6       -1.83039  -0.00347   0.00000   0.00170   0.00171  -1.82868
    D7       -1.38181  -0.01890   0.00000  -0.00161  -0.00160  -1.38341
    D8        1.76626  -0.01053   0.00000  -0.00080  -0.00079   1.76546
    D9       -1.38805  -0.00506   0.00000  -0.00316  -0.00317  -1.39122
   D10        2.93080   0.00194   0.00000  -0.00476  -0.00476   2.92604
   D11        0.71491  -0.00062   0.00000  -0.00054  -0.00054   0.71436
   D12        1.25899   0.01992   0.00000   0.00160   0.00158   1.26057
   D13       -0.70536   0.02692   0.00000   0.00000   0.00000  -0.70536
   D14       -2.92124   0.02435   0.00000   0.00422   0.00421  -2.91703
   D15        0.22765  -0.00878   0.00000  -0.00234  -0.00233   0.22531
   D16       -2.82306  -0.01101   0.00000  -0.00251  -0.00251  -2.82557
   D17       -2.81689  -0.00026   0.00000  -0.00082  -0.00082  -2.81771
   D18        0.41559  -0.00250   0.00000  -0.00099  -0.00099   0.41460
   D19        1.13081  -0.00107   0.00000   0.00313   0.00314   1.13395
   D20       -1.54170  -0.01314   0.00000  -0.00138  -0.00139  -1.54308
   D21       -2.09977   0.00123   0.00000   0.00329   0.00330  -2.09647
   D22        1.51091  -0.01085   0.00000  -0.00122  -0.00123   1.50968
   D23       -1.34720   0.00973   0.00000   0.00032   0.00030  -1.34690
   D24        1.80018  -0.00113   0.00000  -0.00212  -0.00212   1.79806
   D25        1.28444   0.02146   0.00000   0.00754   0.00752   1.29195
   D26       -1.85137   0.01060   0.00000   0.00511   0.00510  -1.84628
   D27        1.34038   0.00543   0.00000   0.00006   0.00007   1.34044
   D28       -2.95939  -0.00393   0.00000  -0.00231  -0.00231  -2.96170
   D29       -0.75295   0.00161   0.00000   0.00002   0.00002  -0.75294
   D30       -1.34105  -0.01585   0.00000  -0.00798  -0.00796  -1.34901
   D31        0.64236  -0.02521   0.00000  -0.01035  -0.01034   0.63203
   D32        2.84880  -0.01967   0.00000  -0.00802  -0.00801   2.84079
   D33        0.04228  -0.00281   0.00000  -0.00221  -0.00220   0.04008
   D34       -3.10578  -0.01117   0.00000  -0.00302  -0.00301  -3.10879
   D35       -3.10509   0.00805   0.00000   0.00023   0.00022  -3.10488
   D36        0.03002  -0.00031   0.00000  -0.00059  -0.00059   0.02944
   D37        0.01998   0.00246   0.00000   0.00175   0.00175   0.02172
   D38       -2.07554   0.00612   0.00000   0.00241   0.00241  -2.07313
   D39        2.10125  -0.01199   0.00000  -0.00151  -0.00151   2.09974
   D40        2.09657  -0.00267   0.00000   0.00050   0.00050   2.09707
   D41        0.00105   0.00099   0.00000   0.00117   0.00117   0.00222
   D42       -2.10535  -0.01712   0.00000  -0.00275  -0.00276  -2.10810
   D43       -2.07057   0.01454   0.00000   0.00386   0.00386  -2.06671
   D44        2.11711   0.01820   0.00000   0.00453   0.00453   2.12163
   D45        0.01071   0.00009   0.00000   0.00061   0.00060   0.01131
   D46        2.37449  -0.01347   0.00000  -0.00029  -0.00030   2.37419
   D47        0.53512  -0.00208   0.00000  -0.00183  -0.00183   0.53329
   D48       -1.64714  -0.02005   0.00000  -0.00622  -0.00622  -1.65336
   D49       -2.41605   0.01814   0.00000   0.00488   0.00489  -2.41115
   D50       -0.53633  -0.00028   0.00000  -0.00009  -0.00009  -0.53642
   D51        1.62466   0.02129   0.00000   0.00428   0.00429   1.62895
   D52        0.89008  -0.01258   0.00000  -0.00182  -0.00181   0.88826
   D53        2.99100  -0.01315   0.00000  -0.00201  -0.00201   2.98899
   D54       -1.17316  -0.00430   0.00000  -0.00072  -0.00072  -1.17388
   D55       -0.88941   0.01281   0.00000   0.00276   0.00275  -0.88666
   D56       -2.99036   0.01322   0.00000   0.00281   0.00281  -2.98755
   D57        1.17380   0.00469   0.00000   0.00176   0.00175   1.17556
         Item               Value     Threshold  Converged?
 Maximum Force            0.107177     0.000015     NO 
 RMS     Force            0.019308     0.000010     NO 
 Maximum Displacement     0.010309     0.000060     NO 
 RMS     Displacement     0.003558     0.000040     NO 
 Predicted change in Energy=-4.226585D-03
 GradGradGradGradGradGradGradGradGradGradGradGradGradGradGradGradGradGrad

                          Input orientation:                          
 ---------------------------------------------------------------------
 Center     Atomic      Atomic             Coordinates (Angstroms)
 Number     Number       Type             X           Y           Z
 ---------------------------------------------------------------------
      1          6           0       -0.362276    0.989565    0.831231
      2          6           0        0.848329    1.863715    1.160339
      3          6           0        0.984189    2.496004   -0.221192
      4          6           0       -0.374835    2.037148   -0.759455
      5          6           0       -1.579569    2.481481   -0.225588
      6          6           0       -1.602626    1.672719    0.948268
      7          1           0        1.790676    3.009542   -0.701181
      8          1           0       -2.278152    3.206706   -0.587184
      9          1           0       -2.347824    1.604490    1.713051
     10          1           0        1.356028    2.038920    2.085621
     11          6           0       -0.194952   -0.805559   -0.584948
     12          6           0       -0.238772   -0.065680   -1.751612
     13          8           0       -1.390429   -0.483321   -2.482826
     14          8           0       -1.316693   -1.686687   -0.588921
     15          6           0       -1.398500   -1.846697   -2.017579
     16          1           0       -2.284589   -2.368671   -2.314418
     17          1           0       -0.547577   -2.379846   -2.389252
     18          1           0        0.626078   -0.178131   -2.371867
     19          1           0        0.695770   -1.382851   -0.447351
 ---------------------------------------------------------------------
                    Distance matrix (angstroms):
                    1          2          3          4          5
     1  C    0.000000
     2  C    1.529057   0.000000
     3  C    2.278139   1.525409   0.000000
     4  C    1.904697   2.282941   1.532065   0.000000
     5  C    2.196470   2.863061   2.563803   1.390622   0.000000
     6  C    1.420867   2.467516   2.955849   2.134618   1.425681
     7  H    3.326228   2.380377   1.069828   2.374528   3.444356
     8  H    3.255487   3.825225   3.358857   2.240571   1.069917
     9  H    2.257906   3.253933   3.954542   3.192674   2.262223
    10  H    2.372173   1.069861   2.380877   3.330217   3.762350
    11  C    2.292604   3.355515   3.524629   2.853734   3.584820
    12  C    2.792825   3.658389   3.224910   2.329114   3.257992
    13  O    3.769545   4.877835   4.430596   3.217795   3.731079
    14  O    3.176487   4.511384   4.787921   3.844883   4.192223
    15  C    4.151369   5.377226   5.269086   4.208921   4.687978
    16  H    4.986798   6.308899   6.223469   5.047407   5.327686
    17  H    4.664631   5.705783   5.551640   4.711255   5.420236
    18  H    3.549676   4.085952   3.450311   2.917046   4.067545
    19  H    2.895271   3.626035   3.896133   3.597221   4.489923
                    6          7          8          9         10
     6  C    0.000000
     7  H    4.002783   0.000000
     8  H    2.273117   4.075198   0.000000
     9  H    1.069986   4.992982   2.804110   0.000000
    10  H    3.190816   2.982833   4.659922   3.747806   0.000000
    11  C    3.236380   4.302467   4.520841   3.965349   4.198635
    12  C    3.488764   3.831326   4.027837   4.386508   4.658013
    13  O    4.057825   5.049137   4.242383   4.783403   5.897070
    14  O    3.705443   5.632310   4.986953   4.146583   5.308178
    15  C    4.606972   5.957080   5.325100   5.170058   6.286628
    16  H    5.238609   6.937975   5.836798   5.657784   7.213965
    17  H    5.354946   6.112489   6.119796   5.995391   6.570670
    18  H    4.406366   3.782689   4.803828   5.358021   5.031634
    19  H    4.070243   4.533913   5.470630   4.780691   4.308179
                   11         12         13         14         15
    11  C    0.000000
    12  C    1.382189   0.000000
    13  O    2.266042   1.426679   0.000000
    14  O    1.426431   2.267471   2.245084   0.000000
    15  C    2.141245   2.141898   1.440594   1.439916   0.000000
    16  H    3.130650   3.131435   2.093425   2.092670   1.070385
    17  H    2.420380   2.420188   2.077490   2.076825   1.070729
    18  H    2.064180   1.070200   2.042488   3.037927   2.647367
    19  H    1.070319   2.075910   3.050334   2.040187   2.658333
                   16         17         18         19
    16  H    0.000000
    17  H    1.738659   0.000000
    18  H    3.643316   2.495059   0.000000
    19  H    3.652440   2.512148   2.271557   0.000000
 Symmetry turned off by external request.
 Stoichiometry    C9H8O2
 Framework group  C1[X(C9H8O2)]
 Deg. of freedom    51
 Full point group                 C1      NOp   1
 Rotational constants (GHZ):           2.3509549           0.8161604           0.8093646
 Standard basis: VSTO-6G (5D, 7F)
    52 basis functions,   312 primitive gaussians,    52 cartesian basis functions
    28 alpha electrons       28 beta electrons
       nuclear repulsion energy       328.9303565168 Hartrees.
 Integral buffers will be    131072 words long.
 Regular integral format.
 Two-electron integral symmetry is turned off.
 Do NDO integrals.
 One-electron integrals computed using PRISM.
 NBasis=    52 RedAO= F EigKep=  0.00D+00  NBF=    52
 NBsUse=    52 1.00D-04 EigRej=  0.00D+00 NBFU=    52
 Initial guess from the checkpoint file:  "C:\Users\al6323\OneDrive - Imperial College London\Desktop\TSR20251113\TS(Berny)_PM6_endo.chk"
 B after Tr=     0.001070    0.000553    0.000235
         Rot=    1.000000   -0.000017   -0.000020   -0.000005 Ang=   0.00 deg.
 Keep J ints in memory in canonical form, NReq=867036.
 Overlap will be assumed to be unity.
 Requested convergence on RMS density matrix=1.00D-08 within  32 cycles.
 Requested convergence on MAX density matrix=1.00D-06.
 Requested convergence on             energy=1.00D-06.
 No special actions if energy rises.
 SCF Done:  E(RPM6) =  0.379456070540     A.U. after   18 cycles
            NFock= 17  Conv=0.77D-08     -V/T= 1.0036
 QCSCF skips out because SCF is already converged.
 Calling FoFJK, ICntrl=      2127 FMM=F ISym2X=0 I1Cent= 0 IOpClX= 0 NMat=1 NMatS=1 NMatT=0.
 -------------------------------------------------------------------
 Center     Atomic                   Forces (Hartrees/Bohr)
 Number     Number              X              Y              Z
 -------------------------------------------------------------------
      1        6           0.047298406    0.083223398   -0.045210417
      2        6          -0.021695973   -0.007868837   -0.115505441
      3        6          -0.058382825   -0.070075451    0.062670862
      4        6           0.093210841   -0.027156977    0.073905156
      5        6          -0.025876526   -0.023042390    0.011706944
      6        6          -0.019595009   -0.001630958   -0.014792943
      7        1          -0.008200552   -0.002327752    0.005394273
      8        1          -0.000567453   -0.000993314   -0.000368176
      9        1          -0.001744272   -0.001136859   -0.000038313
     10        1          -0.001635815   -0.004357930   -0.009648775
     11        6           0.006153282    0.002663802    0.031824528
     12        6           0.006358672    0.027758791   -0.016876032
     13        8           0.000982911    0.013186932   -0.009592947
     14        8           0.002874948   -0.002841418    0.018993448
     15        6          -0.038957239   -0.016235185   -0.011966995
     16        1          -0.016772569    0.001464460    0.001669322
     17        1           0.015095147   -0.011573995   -0.007676503
     18        1           0.009966339    0.034434875   -0.011305559
     19        1           0.011487686    0.006508807    0.036817570
 -------------------------------------------------------------------
 Cartesian Forces:  Max     0.115505441 RMS     0.033180263

 GradGradGradGradGradGradGradGradGradGradGradGradGradGradGradGradGradGrad
 Berny optimization.
 FormGI is forming the generalized inverse of G from B-inverse, IUseBI=4.
 Internal  Forces:  Max     0.108821408 RMS     0.019357615
 Search for a saddle point.
 Step number   2 out of a maximum of  114
 All quantities printed in internal units (Hartrees-Bohrs-Radians)
 Swapping is turned off.
 Update second derivatives using D2CorX and points    1    2
 ITU=  0  0
     Eigenvalues ---   -0.12091  -0.01523  -0.00950  -0.00194   0.00103
     Eigenvalues ---    0.00730   0.00820   0.00902   0.01293   0.01559
     Eigenvalues ---    0.01829   0.02547   0.02791   0.03114   0.03305
     Eigenvalues ---    0.03588   0.03990   0.04059   0.04890   0.05441
     Eigenvalues ---    0.05953   0.06284   0.07067   0.08302   0.08336
     Eigenvalues ---    0.08651   0.08702   0.08775   0.10638   0.13804
     Eigenvalues ---    0.16714   0.17873   0.21317   0.23686   0.24808
     Eigenvalues ---    0.25817   0.26679   0.26808   0.26905   0.27185
     Eigenvalues ---    0.27421   0.27471   0.30366   0.31977   0.32262
     Eigenvalues ---    0.32884   0.36286   0.42292   0.56273   0.58814
     Eigenvalues --- 1000.000001000.000001000.000001000.000001000.00000
     Eigenvalues --- 1000.000001000.000001000.000001000.000001000.00000
     Eigenvalues --- 1000.000001000.000001000.000001000.000001000.00000
     Eigenvalues --- 1000.000001000.000001000.000001000.000001000.00000
     Eigenvalues --- 1000.000001000.000001000.000001000.000001000.00000
     Eigenvalues --- 1000.000001000.000001000.000001000.000001000.00000
     Eigenvalues --- 1000.000001000.000001000.000001000.000001000.00000
     Eigenvalues --- 1000.000001000.000001000.000001000.000001000.00000
     Eigenvalues --- 1000.000001000.000001000.000001000.000001000.00000
     Eigenvalues --- 1000.000001000.000001000.000001000.000001000.00000
     Eigenvalues --- 1000.000001000.000001000.000001000.000001000.00000
     Eigenvalues --- 1000.000001000.000001000.000001000.000001000.00000
     Eigenvalues --- 1000.000001000.000001000.000001000.000001000.00000
     Eigenvalues --- 1000.00000
 Eigenvectors required to have negative eigenvalues:
                          R3        R9        R13       R4        R6
   1                    0.67967   0.64958  -0.12584   0.09025  -0.08655
                          R10       A10       R1        R8        R2
   1                    0.08493   0.08362  -0.07770  -0.07725  -0.07707
 RFO step:  Lambda0=9.631849587D-03 Lambda=-1.29340767D-01.
 Linear search not attempted -- option 19 set.
 Maximum step size (   0.020) exceeded in Quadratic search.
    -- Step size scaled by   0.033
 Iteration  1 RMS(Cart)=  0.00362221 RMS(Int)=  0.00001256
 Iteration  2 RMS(Cart)=  0.00001504 RMS(Int)=  0.00000713
 Iteration  3 RMS(Cart)=  0.00000000 RMS(Int)=  0.00000713
 Iteration  1 RMS(Cart)=  0.00000056 RMS(Int)=  0.00000063
 Variable       Old X    -DE/DX   Delta X   Delta X   Delta X     New X
                                 (Linear)    (Quad)   (Total)
    R1        2.88950  -0.06370   0.00000  -0.00576  -0.00577   2.88373
    R2        2.68505   0.00106   0.00000   0.00025   0.00025   2.68530
    R3        4.33239  -0.03334   0.00000   0.00130   0.00130   4.33369
    R4        2.88261  -0.10882   0.00000  -0.00739  -0.00741   2.87520
    R5        2.02174  -0.00983   0.00000  -0.00025  -0.00025   2.02149
    R6        2.89518  -0.07043   0.00000  -0.00681  -0.00681   2.88837
    R7        2.02168  -0.00972   0.00000  -0.00032  -0.00032   2.02137
    R8        2.62789   0.01604   0.00000   0.00089   0.00089   2.62879
    R9        4.40139  -0.03737   0.00000   0.00521   0.00521   4.40660
   R10        2.69415  -0.05469   0.00000  -0.00188  -0.00187   2.69227
   R11        2.02185  -0.00018   0.00000  -0.00016  -0.00016   2.02169
   R12        2.02198   0.00126   0.00000  -0.00003  -0.00003   2.02195
   R13        2.61196   0.01645   0.00000  -0.00078  -0.00077   2.61119
   R14        2.69556   0.01728   0.00000   0.00010   0.00010   2.69567
   R15        2.02261   0.01078   0.00000   0.00058   0.00058   2.02319
   R16        2.69603   0.01767   0.00000   0.00050   0.00050   2.69653
   R17        2.02239   0.01099   0.00000   0.00036   0.00036   2.02274
   R18        2.72233   0.02643   0.00000   0.00148   0.00148   2.72381
   R19        2.72105   0.03023   0.00000   0.00195   0.00194   2.72299
   R20        2.02273   0.01271   0.00000   0.00072   0.00072   2.02345
   R21        2.02339   0.02042   0.00000   0.00136   0.00136   2.02475
    A1        1.98073   0.03377   0.00000   0.00638   0.00639   1.98712
    A2        2.12094  -0.02792   0.00000  -0.00171  -0.00171   2.11923
    A3        2.08411   0.00073   0.00000  -0.00336  -0.00338   2.08073
    A4        1.68359   0.00851   0.00000  -0.00010  -0.00011   1.68348
    A5        2.28562  -0.00410   0.00000   0.00027   0.00027   2.28589
    A6        2.30924  -0.00521   0.00000  -0.00031  -0.00031   2.30893
    A7        1.68610   0.00364   0.00000  -0.00094  -0.00094   1.68515
    A8        2.30831  -0.00103   0.00000   0.00038   0.00038   2.30869
    A9        2.28477  -0.00241   0.00000   0.00058   0.00058   2.28535
   A10        2.13875   0.02589   0.00000   0.00656   0.00657   2.14532
   A11        1.94792  -0.01416   0.00000   0.00192   0.00192   1.94984
   A12        2.09743  -0.00508   0.00000  -0.00563  -0.00566   2.09176
   A13        1.72020  -0.00337   0.00000  -0.00207  -0.00208   1.71812
   A14        2.28166   0.00188   0.00000   0.00120   0.00120   2.28287
   A15        2.28132   0.00152   0.00000   0.00087   0.00088   2.28220
   A16        1.76278  -0.01286   0.00000  -0.00221  -0.00222   1.76056
   A17        2.26034   0.00669   0.00000   0.00125   0.00126   2.26160
   A18        2.26003   0.00611   0.00000   0.00096   0.00096   2.26099
   A19        1.67091  -0.00801   0.00000   0.00154   0.00154   1.67244
   A20        2.01308  -0.00109   0.00000  -0.00209  -0.00209   2.01099
   A21        1.98630  -0.00981   0.00000  -0.00349  -0.00350   1.98281
   A22        1.87903  -0.00201   0.00000   0.00119   0.00118   1.88021
   A23        2.00823   0.01107   0.00000   0.00271   0.00272   2.01094
   A24        1.89824   0.00881   0.00000   0.00058   0.00057   1.89882
   A25        1.69671  -0.01585   0.00000  -0.00459  -0.00459   1.69212
   A26        2.02135   0.00326   0.00000   0.00121   0.00121   2.02256
   A27        1.97030  -0.00920   0.00000  -0.00147  -0.00146   1.96884
   A28        1.87706  -0.00096   0.00000  -0.00014  -0.00014   1.87692
   A29        1.99033   0.01420   0.00000   0.00281   0.00281   1.99313
   A30        1.90131   0.00764   0.00000   0.00183   0.00182   1.90314
   A31        1.68710   0.01389   0.00000   0.00100   0.00101   1.68811
   A32        1.68714   0.01418   0.00000   0.00072   0.00072   1.68787
   A33        1.78743  -0.01453   0.00000  -0.00034  -0.00034   1.78709
   A34        1.95691   0.00494   0.00000   0.00013   0.00013   1.95704
   A35        1.93337   0.00011   0.00000  -0.00046  -0.00046   1.93292
   A36        1.95668   0.00474   0.00000  -0.00006  -0.00006   1.95661
   A37        1.93327  -0.00016   0.00000  -0.00060  -0.00060   1.93267
   A38        1.89526   0.00410   0.00000   0.00120   0.00120   1.89646
    D1       -1.46989   0.00227   0.00000   0.00058   0.00058  -1.46931
    D2        1.57518  -0.00606   0.00000  -0.00094  -0.00095   1.57424
    D3        1.20847   0.01839   0.00000   0.00275   0.00275   1.21121
    D4       -2.02965   0.01006   0.00000   0.00122   0.00122  -2.02843
    D5        1.30563  -0.01143   0.00000   0.00093   0.00095   1.30657
    D6       -1.82868  -0.00326   0.00000   0.00175   0.00175  -1.82693
    D7       -1.38341  -0.01859   0.00000  -0.00159  -0.00157  -1.38498
    D8        1.76546  -0.01042   0.00000  -0.00078  -0.00077   1.76469
    D9       -1.39122  -0.00514   0.00000  -0.00323  -0.00323  -1.39445
   D10        2.92604   0.00195   0.00000  -0.00480  -0.00480   2.92124
   D11        0.71436  -0.00062   0.00000  -0.00053  -0.00054   0.71382
   D12        1.26057   0.01967   0.00000   0.00157   0.00156   1.26214
   D13       -0.70536   0.02676   0.00000   0.00000   0.00000  -0.70536
   D14       -2.91703   0.02418   0.00000   0.00427   0.00425  -2.91278
   D15        0.22531  -0.00874   0.00000  -0.00236  -0.00236   0.22295
   D16       -2.82557  -0.01090   0.00000  -0.00254  -0.00253  -2.82810
   D17       -2.81771  -0.00035   0.00000  -0.00085  -0.00085  -2.81856
   D18        0.41460  -0.00251   0.00000  -0.00103  -0.00103   0.41357
   D19        1.13395  -0.00093   0.00000   0.00318   0.00319   1.13714
   D20       -1.54308  -0.01292   0.00000  -0.00137  -0.00138  -1.54446
   D21       -2.09647   0.00129   0.00000   0.00334   0.00335  -2.09312
   D22        1.50968  -0.01071   0.00000  -0.00121  -0.00122   1.50846
   D23       -1.34690   0.00950   0.00000   0.00028   0.00027  -1.34662
   D24        1.79806  -0.00114   0.00000  -0.00211  -0.00211   1.79595
   D25        1.29195   0.02120   0.00000   0.00749   0.00747   1.29943
   D26       -1.84628   0.01057   0.00000   0.00510   0.00509  -1.84118
   D27        1.34044   0.00541   0.00000   0.00009   0.00009   1.34054
   D28       -2.96170  -0.00382   0.00000  -0.00233  -0.00233  -2.96403
   D29       -0.75294   0.00150   0.00000  -0.00001  -0.00001  -0.75295
   D30       -1.34901  -0.01568   0.00000  -0.00795  -0.00792  -1.35694
   D31        0.63203  -0.02490   0.00000  -0.01036  -0.01034   0.62168
   D32        2.84079  -0.01959   0.00000  -0.00804  -0.00803   2.83276
   D33        0.04008  -0.00274   0.00000  -0.00220  -0.00220   0.03788
   D34       -3.10879  -0.01090   0.00000  -0.00301  -0.00300  -3.11179
   D35       -3.10488   0.00790   0.00000   0.00019   0.00018  -3.10469
   D36        0.02944  -0.00027   0.00000  -0.00062  -0.00062   0.02882
   D37        0.02172   0.00243   0.00000   0.00175   0.00175   0.02347
   D38       -2.07313   0.00612   0.00000   0.00247   0.00247  -2.07065
   D39        2.09974  -0.01190   0.00000  -0.00152  -0.00153   2.09821
   D40        2.09707  -0.00270   0.00000   0.00046   0.00046   2.09752
   D41        0.00222   0.00098   0.00000   0.00118   0.00118   0.00340
   D42       -2.10810  -0.01703   0.00000  -0.00281  -0.00281  -2.11092
   D43       -2.06671   0.01443   0.00000   0.00388   0.00388  -2.06283
   D44        2.12163   0.01811   0.00000   0.00460   0.00460   2.12623
   D45        0.01131   0.00010   0.00000   0.00060   0.00060   0.01191
   D46        2.37419  -0.01339   0.00000  -0.00029  -0.00030   2.37389
   D47        0.53329  -0.00211   0.00000  -0.00186  -0.00186   0.53143
   D48       -1.65336  -0.02000   0.00000  -0.00632  -0.00633  -1.65969
   D49       -2.41115   0.01798   0.00000   0.00498   0.00498  -2.40617
   D50       -0.53642  -0.00023   0.00000  -0.00008  -0.00008  -0.53650
   D51        1.62895   0.02121   0.00000   0.00438   0.00438   1.63333
   D52        0.88826  -0.01238   0.00000  -0.00184  -0.00183   0.88643
   D53        2.98899  -0.01304   0.00000  -0.00205  -0.00205   2.98694
   D54       -1.17388  -0.00427   0.00000  -0.00074  -0.00074  -1.17462
   D55       -0.88666   0.01256   0.00000   0.00278   0.00277  -0.88389
   D56       -2.98755   0.01308   0.00000   0.00286   0.00286  -2.98469
   D57        1.17556   0.00465   0.00000   0.00178   0.00178   1.17734
         Item               Value     Threshold  Converged?
 Maximum Force            0.104712     0.000015     NO 
 RMS     Force            0.018931     0.000010     NO 
 Maximum Displacement     0.010599     0.000060     NO 
 RMS     Displacement     0.003630     0.000040     NO 
 Predicted change in Energy=-4.165821D-03
 GradGradGradGradGradGradGradGradGradGradGradGradGradGradGradGradGradGrad

                          Input orientation:                          
 ---------------------------------------------------------------------
 Center     Atomic      Atomic             Coordinates (Angstroms)
 Number     Number       Type             X           Y           Z
 ---------------------------------------------------------------------
      1          6           0       -0.360729    0.992890    0.829836
      2          6           0        0.849271    1.862408    1.159277
      3          6           0        0.985012    2.495435   -0.217597
      4          6           0       -0.370784    2.037490   -0.754528
      5          6           0       -1.580503    2.478255   -0.227791
      6          6           0       -1.604192    1.670828    0.945767
      7          1           0        1.791086    3.010122   -0.696676
      8          1           0       -2.279675    3.201265   -0.592420
      9          1           0       -2.350340    1.600632    1.709421
     10          1           0        1.357212    2.035965    2.084582
     11          6           0       -0.192558   -0.802748   -0.586705
     12          6           0       -0.237486   -0.065011   -1.754201
     13          8           0       -1.391186   -0.482678   -2.482687
     14          8           0       -1.314071   -1.684263   -0.586481
     15          6           0       -1.401107   -1.846254   -2.015644
     16          1           0       -2.289844   -2.366580   -2.308810
     17          1           0       -0.551459   -2.381595   -2.389158
     18          1           0        0.626810   -0.174704   -2.376047
     19          1           0        0.698817   -1.378610   -0.445002
 ---------------------------------------------------------------------
                    Distance matrix (angstroms):
                    1          2          3          4          5
     1  C    0.000000
     2  C    1.526005   0.000000
     3  C    2.272834   1.521490   0.000000
     4  C    1.897761   2.276365   1.528461   0.000000
     5  C    2.193794   2.864791   2.565593   1.391095   0.000000
     6  C    1.421000   2.470176   2.955904   2.132308   1.424689
     7  H    3.321110   2.376726   1.069661   2.371296   3.445337
     8  H    3.253012   3.827700   3.361082   2.241543   1.069831
     9  H    2.258666   3.257099   3.954573   3.190694   2.261783
    10  H    2.369327   1.069726   2.376904   3.323630   3.764685
    11  C    2.293292   3.352152   3.521495   2.850769   3.580530
    12  C    2.794923   3.658462   3.226692   2.331872   3.256045
    13  O    3.769875   4.876780   4.432393   3.221646   3.726597
    14  O    3.175211   4.506284   4.784530   3.843107   4.186430
    15  C    4.152093   5.375732   5.270370   4.211347   4.682945
    16  H    4.985842   6.306029   6.223909   5.049199   5.320360
    17  H    4.667489   5.706575   5.555344   4.715185   5.417433
    18  H    3.551928   4.086298   3.452080   2.918616   4.065148
    19  H    2.893417   3.619468   3.891252   3.592992   4.485297
                    6          7          8          9         10
     6  C    0.000000
     7  H    4.002404   0.000000
     8  H    2.272561   4.076580   0.000000
     9  H    1.069968   4.992732   2.804548   0.000000
    10  H    3.193765   2.978695   4.663819   3.751826   0.000000
    11  C    3.234156   4.299409   4.515331   3.962885   4.194741
    12  C    3.488675   3.832742   4.023535   4.385795   4.657619
    13  O    4.054290   5.051371   4.234851   4.778487   5.895524
    14  O    3.699810   5.629511   4.980041   4.139512   5.301926
    15  C    4.602289   5.959375   5.317414   5.163156   6.284250
    16  H    5.230971   6.939877   5.826405   5.647000   7.210083
    17  H    5.352767   6.117403   6.114190   5.991032   6.570556
    18  H    4.406564   3.784038   4.798557   5.357825   5.031675
    19  H    4.066591   4.529609   5.465199   4.776482   4.300186
                   11         12         13         14         15
    11  C    0.000000
    12  C    1.381782   0.000000
    13  O    2.265811   1.426942   0.000000
    14  O    1.426485   2.268167   2.246186   0.000000
    15  C    2.142746   2.143639   1.441376   1.440945   0.000000
    16  H    3.132063   3.133206   2.094494   2.093825   1.070765
    17  H    2.422891   2.422459   2.078406   2.077858   1.071450
    18  H    2.065804   1.070389   2.044145   3.041107   2.652624
    19  H    1.070629   2.077548   3.053353   2.040872   2.663698
                   16         17         18         19
    16  H    0.000000
    17  H    1.740305   0.000000
    18  H    3.649070   2.501771   0.000000
    19  H    3.658135   2.519705   2.276732   0.000000
 Symmetry turned off by external request.
 Stoichiometry    C9H8O2
 Framework group  C1[X(C9H8O2)]
 Deg. of freedom    51
 Full point group                 C1      NOp   1
 Rotational constants (GHZ):           2.3516826           0.8166741           0.8102625
 Standard basis: VSTO-6G (5D, 7F)
    52 basis functions,   312 primitive gaussians,    52 cartesian basis functions
    28 alpha electrons       28 beta electrons
       nuclear repulsion energy       328.9959687262 Hartrees.
 Integral buffers will be    131072 words long.
 Regular integral format.
 Two-electron integral symmetry is turned off.
 Do NDO integrals.
 One-electron integrals computed using PRISM.
 NBasis=    52 RedAO= F EigKep=  0.00D+00  NBF=    52
 NBsUse=    52 1.00D-04 EigRej=  0.00D+00 NBFU=    52
 Initial guess from the checkpoint file:  "C:\Users\al6323\OneDrive - Imperial College London\Desktop\TSR20251113\TS(Berny)_PM6_endo.chk"
 B after Tr=     0.001087    0.000564    0.000231
         Rot=    1.000000   -0.000018   -0.000020   -0.000005 Ang=   0.00 deg.
 Keep J ints in memory in canonical form, NReq=867036.
 Overlap will be assumed to be unity.
 Requested convergence on RMS density matrix=1.00D-08 within  32 cycles.
 Requested convergence on MAX density matrix=1.00D-06.
 Requested convergence on             energy=1.00D-06.
 No special actions if energy rises.
 SCF Done:  E(RPM6) =  0.375291100422     A.U. after   18 cycles
            NFock= 17  Conv=0.60D-08     -V/T= 1.0035
 QCSCF skips out because SCF is already converged.
 Calling FoFJK, ICntrl=      2127 FMM=F ISym2X=0 I1Cent= 0 IOpClX= 0 NMat=1 NMatS=1 NMatT=0.
 -------------------------------------------------------------------
 Center     Atomic                   Forces (Hartrees/Bohr)
 Number     Number              X              Y              Z
 -------------------------------------------------------------------
      1        6           0.046226190    0.082352835   -0.044651720
      2        6          -0.021216801   -0.007804042   -0.112851149
      3        6          -0.057047966   -0.068816596    0.060909856
      4        6           0.091042092   -0.026674557    0.073003721
      5        6          -0.025281848   -0.022281840    0.010681345
      6        6          -0.019327474   -0.002245860   -0.013864710
      7        1          -0.008006414   -0.002142083    0.005271650
      8        1          -0.000556949   -0.001017275   -0.000438133
      9        1          -0.001695016   -0.001172902   -0.000046885
     10        1          -0.001474862   -0.004359098   -0.009395451
     11        6           0.006328484    0.001967022    0.031034813
     12        6           0.006297650    0.026433098   -0.016780919
     13        8           0.001193512    0.012657427   -0.009341674
     14        8           0.003020879   -0.002704624    0.018147657
     15        6          -0.038449759   -0.015601566   -0.011435400
     16        1          -0.016482626    0.001657866    0.001792419
     17        1           0.014686696   -0.011338794   -0.007498253
     18        1           0.009570194    0.034319126   -0.011136104
     19        1           0.011174020    0.006771862    0.036598937
 -------------------------------------------------------------------
 Cartesian Forces:  Max     0.112851149 RMS     0.032519176

 GradGradGradGradGradGradGradGradGradGradGradGradGradGradGradGradGradGrad
 Berny optimization.
 FormGI is forming the generalized inverse of G from B-inverse, IUseBI=4.
 Internal  Forces:  Max     0.106345744 RMS     0.018987831
 Search for a saddle point.
 Step number   3 out of a maximum of  114
 All quantities printed in internal units (Hartrees-Bohrs-Radians)
 Swapping is turned off.
 Update second derivatives using D2CorX and points    1    2    3
 ITU=  0  0  0
     Eigenvalues ---   -0.12080  -0.01520  -0.00915  -0.00196   0.00103
     Eigenvalues ---    0.00731   0.00819   0.00902   0.01294   0.01560
     Eigenvalues ---    0.01830   0.02543   0.02780   0.03114   0.03301
     Eigenvalues ---    0.03585   0.03989   0.04057   0.04879   0.05440
     Eigenvalues ---    0.05954   0.06288   0.07067   0.08302   0.08336
     Eigenvalues ---    0.08651   0.08702   0.08774   0.10634   0.13818
     Eigenvalues ---    0.16716   0.17877   0.21330   0.23687   0.24848
     Eigenvalues ---    0.25817   0.26679   0.26808   0.26905   0.27185
     Eigenvalues ---    0.27421   0.27472   0.30458   0.32019   0.32278
     Eigenvalues ---    0.32890   0.36293   0.42297   0.56294   0.58837
     Eigenvalues --- 1000.000001000.000001000.000001000.000001000.00000
     Eigenvalues --- 1000.000001000.000001000.000001000.000001000.00000
     Eigenvalues --- 1000.000001000.000001000.000001000.000001000.00000
     Eigenvalues --- 1000.000001000.000001000.000001000.000001000.00000
     Eigenvalues --- 1000.000001000.000001000.000001000.000001000.00000
     Eigenvalues --- 1000.000001000.000001000.000001000.000001000.00000
     Eigenvalues --- 1000.000001000.000001000.000001000.000001000.00000
     Eigenvalues --- 1000.000001000.000001000.000001000.000001000.00000
     Eigenvalues --- 1000.000001000.000001000.000001000.000001000.00000
     Eigenvalues --- 1000.000001000.000001000.000001000.000001000.00000
     Eigenvalues --- 1000.000001000.000001000.000001000.000001000.00000
     Eigenvalues --- 1000.000001000.000001000.000001000.000001000.00000
     Eigenvalues --- 1000.000001000.000001000.000001000.000001000.00000
     Eigenvalues --- 1000.00000
 Eigenvectors required to have negative eigenvalues:
                          R3        R9        R13       R4        R6
   1                    0.68006   0.64923  -0.12534   0.09164  -0.08587
                          R10       A10       R1        R8        R2
   1                    0.08510   0.08376  -0.07728  -0.07727  -0.07725
 RFO step:  Lambda0=9.264102176D-03 Lambda=-1.26126431D-01.
 Linear search not attempted -- option 19 set.
 Maximum step size (   0.020) exceeded in Quadratic search.
    -- Step size scaled by   0.033
 Iteration  1 RMS(Cart)=  0.00369697 RMS(Int)=  0.00001276
 Iteration  2 RMS(Cart)=  0.00001535 RMS(Int)=  0.00000725
 Iteration  3 RMS(Cart)=  0.00000000 RMS(Int)=  0.00000725
 Iteration  1 RMS(Cart)=  0.00000072 RMS(Int)=  0.00000081
 Variable       Old X    -DE/DX   Delta X   Delta X   Delta X     New X
                                 (Linear)    (Quad)   (Total)
    R1        2.88373  -0.06233   0.00000  -0.00570  -0.00570   2.87803
    R2        2.68530   0.00103   0.00000   0.00024   0.00024   2.68554
    R3        4.33369  -0.03269   0.00000   0.00124   0.00124   4.33493
    R4        2.87520  -0.10635   0.00000  -0.00717  -0.00719   2.86801
    R5        2.02149  -0.00953   0.00000  -0.00025  -0.00025   2.02124
    R6        2.88837  -0.06893   0.00000  -0.00669  -0.00670   2.88168
    R7        2.02137  -0.00943   0.00000  -0.00031  -0.00031   2.02105
    R8        2.62879   0.01577   0.00000   0.00089   0.00089   2.62968
    R9        4.40660  -0.03651   0.00000   0.00516   0.00516   4.41176
   R10        2.69227  -0.05309   0.00000  -0.00180  -0.00179   2.69048
   R11        2.02169  -0.00017   0.00000  -0.00017  -0.00017   2.02152
   R12        2.02195   0.00123   0.00000  -0.00004  -0.00004   2.02191
   R13        2.61119   0.01619   0.00000  -0.00075  -0.00074   2.61045
   R14        2.69567   0.01683   0.00000   0.00008   0.00009   2.69575
   R15        2.02319   0.01050   0.00000   0.00057   0.00057   2.02376
   R16        2.69653   0.01713   0.00000   0.00048   0.00048   2.69701
   R17        2.02274   0.01068   0.00000   0.00034   0.00034   2.02308
   R18        2.72381   0.02561   0.00000   0.00145   0.00145   2.72525
   R19        2.72299   0.02936   0.00000   0.00192   0.00192   2.72491
   R20        2.02345   0.01238   0.00000   0.00072   0.00072   2.02417
   R21        2.02475   0.01993   0.00000   0.00136   0.00136   2.02610
    A1        1.98712   0.03368   0.00000   0.00649   0.00650   1.99362
    A2        2.11923  -0.02757   0.00000  -0.00177  -0.00177   2.11746
    A3        2.08073   0.00039   0.00000  -0.00340  -0.00342   2.07731
[...]
 ! A6    A(3,2,10)             133.2314         -DE/DX =   -0.0001              !
 ! A7    A(2,3,4)               94.5613         -DE/DX =    0.0                 !
 ! A8    A(2,3,7)              133.658          -DE/DX =    0.0                 !
 ! A9    A(4,3,7)              131.7715         -DE/DX =    0.0                 !
 ! A10   A(3,4,5)              145.9856         -DE/DX =    0.0003              !
 ! A11   A(3,4,12)             107.6962         -DE/DX =   -0.0001              !
 ! A12   A(5,4,12)             105.9705         -DE/DX =   -0.0002              !
 ! A13   A(4,5,6)               94.2966         -DE/DX =   -0.0001              !
 ! A14   A(4,5,8)              131.5454         -DE/DX =    0.0001              !
 ! A15   A(6,5,8)              134.1066         -DE/DX =    0.0001              !
 ! A16   A(1,6,5)               94.9432         -DE/DX =   -0.0004              !
 ! A17   A(1,6,9)              131.7413         -DE/DX =    0.0002              !
 ! A18   A(5,6,9)              133.3153         -DE/DX =    0.0002              !
 ! A19   A(1,11,12)             90.1191         -DE/DX =   -0.0003              !
 ! A20   A(1,11,14)            102.64           -DE/DX =    0.0002              !
 ! A21   A(1,11,19)             85.4436         -DE/DX =    0.0001              !
 ! A22   A(12,11,14)           111.4173         -DE/DX =   -0.0014              !
 ! A23   A(12,11,19)           135.1732         -DE/DX =    0.0                 !
 ! A24   A(14,11,19)           113.0784         -DE/DX =    0.0014              !
 ! A25   A(4,12,11)             94.9636         -DE/DX =   -0.0001              !
 ! A26   A(4,12,13)            109.5115         -DE/DX =   -0.0003              !
 ! A27   A(4,12,18)             94.1189         -DE/DX =    0.0002              !
 ! A28   A(11,12,13)           108.117          -DE/DX =    0.0005              !
 ! A29   A(11,12,18)           134.286          -DE/DX =    0.0001              !
 ! A30   A(13,12,18)           110.6645         -DE/DX =   -0.0004              !
 ! A31   A(12,13,15)           107.1862         -DE/DX =    0.0002              !
 ! A32   A(11,14,15)           106.455          -DE/DX =    0.0011              !
 ! A33   A(13,15,14)           106.3965         -DE/DX =   -0.0004              !
 ! A34   A(13,15,16)           108.9944         -DE/DX =    0.0                 !
 ! A35   A(13,15,17)           108.2641         -DE/DX =    0.0001              !
 ! A36   A(14,15,16)           108.0498         -DE/DX =    0.0                 !
 ! A37   A(14,15,17)           108.0369         -DE/DX =    0.0001              !
 ! A38   A(16,15,17)           116.6381         -DE/DX =    0.0                 !
 ! D1    D(6,1,2,3)            -74.3734         -DE/DX =   -0.0004              !
 ! D2    D(6,1,2,10)           105.3915         -DE/DX =   -0.0005              !
 ! D3    D(11,1,2,3)            74.269          -DE/DX =    0.0005              !
 ! D4    D(11,1,2,10)         -105.9661         -DE/DX =    0.0004              !
 ! D5    D(2,1,6,5)             73.876          -DE/DX =    0.0002              !
 ! D6    D(2,1,6,9)           -105.9892         -DE/DX =    0.0005              !
 ! D7    D(11,1,6,5)           -73.4135         -DE/DX =   -0.0008              !
 ! D8    D(11,1,6,9)           106.7213         -DE/DX =   -0.0005              !
 ! D9    D(2,1,11,12)          -91.6514         -DE/DX =    0.0001              !
 ! D10   D(2,1,11,14)          156.3432         -DE/DX =    0.0016              !
 ! D11   D(2,1,11,19)           43.6915         -DE/DX =    0.0001              !
 ! D12   D(6,1,11,12)           71.592          -DE/DX =    0.001               !
 ! D13   D(6,1,11,14)          -40.4134         -DE/DX =    0.0025              !
 ! D14   D(6,1,11,19)         -153.0651         -DE/DX =    0.001               !
 ! D15   D(1,2,3,4)             -0.7246         -DE/DX =   -0.0003              !
 ! D16   D(1,2,3,7)           -179.6822         -DE/DX =   -0.0002              !
 ! D17   D(10,2,3,4)           179.5147         -DE/DX =   -0.0001              !
 ! D18   D(10,2,3,7)             0.557          -DE/DX =    0.0                 !
 ! D19   D(2,3,4,5)             73.9402         -DE/DX =    0.0                 !
 ! D20   D(2,3,4,12)           -97.5771         -DE/DX =    0.0                 !
 ! D21   D(7,3,4,5)           -107.0709         -DE/DX =   -0.0001              !
 ! D22   D(7,3,4,12)            81.4118         -DE/DX =   -0.0001              !
 ! D23   D(3,4,5,6)            -74.4461         -DE/DX =    0.0                 !
 ! D24   D(3,4,5,8)            107.9325         -DE/DX =    0.0001              !
 ! D25   D(12,4,5,6)            97.1487         -DE/DX =    0.0                 !
 ! D26   D(12,4,5,8)           -80.4727         -DE/DX =    0.0001              !
 ! D27   D(3,4,12,11)           77.5412         -DE/DX =    0.0003              !
 ! D28   D(3,4,12,13)         -171.2406         -DE/DX =    0.0007              !
 ! D29   D(3,4,12,18)          -57.6073         -DE/DX =    0.0002              !
 ! D30   D(5,4,12,11)          -97.535          -DE/DX =    0.0002              !
 ! D31   D(5,4,12,13)           13.6832         -DE/DX =    0.0006              !
 ! D32   D(5,4,12,18)          127.3165         -DE/DX =    0.0002              !
 ! D33   D(4,5,6,1)              1.4208         -DE/DX =    0.0003              !
 ! D34   D(4,5,6,9)           -178.7175         -DE/DX =    0.0                 !
 ! D35   D(8,5,6,1)            178.9415         -DE/DX =    0.0002              !
 ! D36   D(8,5,6,9)             -1.1968         -DE/DX =   -0.0001              !
 ! D37   D(1,11,12,4)            6.663          -DE/DX =   -0.0002              !
 ! D38   D(1,11,12,13)        -105.7424         -DE/DX =    0.0                 !
 ! D39   D(1,11,12,18)         107.3489         -DE/DX =   -0.0001              !
 ! D40   D(14,11,12,4)         110.306          -DE/DX =   -0.0003              !
 ! D41   D(14,11,12,13)         -2.0993         -DE/DX =   -0.0001              !
 ! D42   D(14,11,12,18)       -149.0081         -DE/DX =   -0.0001              !
 ! D43   D(19,11,12,4)         -76.9874         -DE/DX =   -0.0001              !
 ! D44   D(19,11,12,13)        170.6073         -DE/DX =    0.0001              !
 ! D45   D(19,11,12,18)         23.6985         -DE/DX =    0.0                 !
 ! D46   D(1,11,14,15)          93.0322         -DE/DX =   -0.0005              !
 ! D47   D(12,11,14,15)         -2.146          -DE/DX =    0.0001              !
 ! D48   D(19,11,14,15)       -176.5633         -DE/DX =    0.0                 !
 ! D49   D(4,12,13,15)         -96.7791         -DE/DX =    0.0                 !
 ! D50   D(11,12,13,15)          5.4908         -DE/DX =    0.0                 !
 ! D51   D(18,12,13,15)        160.8002         -DE/DX =    0.0002              !
 ! D52   D(12,13,15,14)         -6.6817         -DE/DX =    0.0001              !
 ! D53   D(12,13,15,16)        109.605          -DE/DX =   -0.0001              !
 ! D54   D(12,13,15,17)       -122.5936         -DE/DX =    0.0                 !
 ! D55   D(11,14,15,13)          5.4169         -DE/DX =   -0.0001              !
 ! D56   D(11,14,15,16)       -111.5016         -DE/DX =    0.0001              !
 ! D57   D(11,14,15,17)        121.4815         -DE/DX =   -0.0001              !
 --------------------------------------------------------------------------------
 GradGradGradGradGradGradGradGradGradGradGradGradGradGradGradGradGradGrad

                          Input orientation:                          
 ---------------------------------------------------------------------
 Center     Atomic      Atomic             Coordinates (Angstroms)
 Number     Number       Type             X           Y           Z
 ---------------------------------------------------------------------
      1          6           0       -0.422090    1.063184    0.805425
      2          6           0        0.824784    1.653267    1.092785
      3          6           0        0.956000    2.264198   -0.176300
      4          6           0       -0.277276    1.750624   -0.677926
      5          6           0       -1.699285    1.843008   -0.639173
      6          6           0       -1.811558    1.223412    0.624010
      7          1           0        1.703313    2.873401   -0.623021
      8          1           0       -2.401613    2.213986   -1.346618
      9          1           0       -2.641897    0.962413    1.239141
     10          1           0        1.438362    1.640873    1.963582
     11          6           0        0.322511   -0.706020   -0.669844
     12          6           0        0.137935    0.128133   -1.762197
     13          8           0       -1.029354   -0.296880   -2.448920
     14          8           0       -0.697705   -1.638649   -0.566507
     15          6           0       -1.636414   -1.348358   -1.653223
     16          1           0       -2.565451   -0.968817   -1.207971
     17          1           0       -1.721207   -2.246770   -2.277158
     18          1           0        0.803170    0.648546   -2.430280
     19          1           0        1.102049   -0.856706    0.049333
 ---------------------------------------------------------------------
                    Distance matrix (angstroms):
                    1          2          3          4          5
     1  C    0.000000
     2  C    1.409066   0.000000
     3  C    2.074934   1.414578   0.000000
     4  C    1.641303   2.087925   1.427009   0.000000
     5  C    2.079955   3.067018   2.728038   1.425534   0.000000
     6  C    1.410393   2.711978   3.063186   2.080148   1.411430
     7  H    3.136030   2.281344   1.062622   2.277362   3.555228
     8  H    3.142315   4.083470   3.556083   2.274788   1.063658
     9  H    2.264025   3.537877   4.079581   3.144496   2.278602
    10  H    2.266348   1.065326   2.280417   3.151670   4.081668
    11  C    2.420937   2.987537   3.076864   2.528816   3.253636
    12  C    2.789378   3.308884   2.783356   1.995123   2.752699
    13  O    3.579010   4.447986   3.957974   2.809682   2.881512
    14  O    3.042707   3.988475   4.256668   3.417067   3.623586
    15  C    3.651721   4.754767   4.685347   3.521668   3.349189
    16  H    3.574464   4.864411   4.890537   3.593334   2.996687
    17  H    4.705935   5.748815   5.650653   4.541105   4.405650
    18  H    3.484678   3.663594   2.777430   2.335098   3.301074
    19  H    2.565278   2.732331   3.132456   3.038027   3.950945
                    6          7          8          9         10
     6  C    0.000000
     7  H    4.078219   0.000000
     8  H    2.283150   4.220052   0.000000
     9  H    1.065818   5.099057   2.882763   0.000000
    10  H    3.539874   2.877471   5.102087   4.199243   0.000000
    11  C    3.154524   3.836804   4.050347   3.900719   3.699725
    12  C    3.270190   3.359260   3.312520   4.175106   4.226218
    13  O    3.516537   4.566406   3.066368   4.217572   5.414304
    14  O    3.293842   5.111427   4.284235   3.715611   4.660408
    15  C    3.439545   5.480725   3.656478   3.836199   5.609904
    16  H    2.954721   5.772967   3.190031   3.118309   5.735830
    17  H    4.524059   6.378061   4.607298   4.848802   6.563575
    18  H    4.061523   3.004401   3.727675   5.042981   4.549089
    19  H    3.625776   3.837613   4.863484   4.329199   3.164705
                   11         12         13         14         15
    11  C    0.000000
    12  C    1.386764   0.000000
    13  O    2.271574   1.419432   0.000000
    14  O    1.386116   2.291176   2.335341   0.000000
    15  C    2.284079   2.310890   1.451641   1.465058   0.000000
    16  H    2.949401   2.969639   2.085916   2.085335   1.097912
    17  H    3.022276   3.059699   2.076110   2.084153   1.097100
    18  H    2.272668   1.076895   2.062116   3.310218   3.247001
    19  H    1.071261   2.276195   3.331299   2.056650   3.261840
                   16         17         18         19
    16  H    0.000000
    17  H    1.867906   0.000000
    18  H    3.931604   3.844318   0.000000
    19  H    3.878652   3.913517   2.916092   0.000000
 Symmetry turned off by external request.
 Stoichiometry    C9H8O2
 Framework group  C1[X(C9H8O2)]
 Deg. of freedom    51
 Full point group                 C1      NOp   1
 Rotational constants (GHZ):           2.1881963           1.0770238           1.0330872

 **********************************************************************

            Population analysis using the SCF Density.

 **********************************************************************

 Alpha  occ. eigenvalues --   -1.19150  -1.16183  -1.07587  -1.01309  -0.97873
 Alpha  occ. eigenvalues --   -0.88774  -0.84147  -0.80514  -0.75865  -0.74865
 Alpha  occ. eigenvalues --   -0.66376  -0.64245  -0.60559  -0.59106  -0.58502
 Alpha  occ. eigenvalues --   -0.57079  -0.56266  -0.52509  -0.50659  -0.50203
 Alpha  occ. eigenvalues --   -0.49930  -0.47227  -0.46931  -0.43578  -0.36311
 Alpha  occ. eigenvalues --   -0.35686  -0.34050  -0.29834
 Alpha virt. eigenvalues --   -0.01396   0.00360   0.02252   0.04680   0.06741
 Alpha virt. eigenvalues --    0.06860   0.09762   0.09865   0.14554   0.14734
 Alpha virt. eigenvalues --    0.15314   0.15431   0.16166   0.17353   0.17710
 Alpha virt. eigenvalues --    0.18059   0.19449   0.19710   0.19932   0.21273
 Alpha virt. eigenvalues --    0.22059   0.22224   0.22568   0.23220
          Condensed to atoms (all electrons):
               1          2          3          4          5          6
     1  C    4.172276   0.000000   0.000000   0.000000   0.000000   0.000000
     2  C    0.000000   4.086331   0.000000   0.000000   0.000000   0.000000
     3  C    0.000000   0.000000   4.199967   0.000000   0.000000   0.000000
     4  C    0.000000   0.000000   0.000000   4.049215   0.000000   0.000000
     5  C    0.000000   0.000000   0.000000   0.000000   4.153017   0.000000
     6  C    0.000000   0.000000   0.000000   0.000000   0.000000   4.082960
     7  H    0.000000   0.000000   0.000000   0.000000   0.000000   0.000000
     8  H    0.000000   0.000000   0.000000   0.000000   0.000000   0.000000
     9  H    0.000000   0.000000   0.000000   0.000000   0.000000   0.000000
    10  H    0.000000   0.000000   0.000000   0.000000   0.000000   0.000000
    11  C    0.000000   0.000000   0.000000   0.000000   0.000000   0.000000
    12  C    0.000000   0.000000   0.000000   0.000000   0.000000   0.000000
    13  O    0.000000   0.000000   0.000000   0.000000   0.000000   0.000000
    14  O    0.000000   0.000000   0.000000   0.000000   0.000000   0.000000
    15  C    0.000000   0.000000   0.000000   0.000000   0.000000   0.000000
    16  H    0.000000   0.000000   0.000000   0.000000   0.000000   0.000000
    17  H    0.000000   0.000000   0.000000   0.000000   0.000000   0.000000
    18  H    0.000000   0.000000   0.000000   0.000000   0.000000   0.000000
    19  H    0.000000   0.000000   0.000000   0.000000   0.000000   0.000000
               7          8          9         10         11         12
     1  C    0.000000   0.000000   0.000000   0.000000   0.000000   0.000000
     2  C    0.000000   0.000000   0.000000   0.000000   0.000000   0.000000
     3  C    0.000000   0.000000   0.000000   0.000000   0.000000   0.000000
     4  C    0.000000   0.000000   0.000000   0.000000   0.000000   0.000000
     5  C    0.000000   0.000000   0.000000   0.000000   0.000000   0.000000
     6  C    0.000000   0.000000   0.000000   0.000000   0.000000   0.000000
     7  H    0.837661   0.000000   0.000000   0.000000   0.000000   0.000000
     8  H    0.000000   0.834953   0.000000   0.000000   0.000000   0.000000
     9  H    0.000000   0.000000   0.844497   0.000000   0.000000   0.000000
    10  H    0.000000   0.000000   0.000000   0.844689   0.000000   0.000000
    11  C    0.000000   0.000000   0.000000   0.000000   3.964842   0.000000
    12  C    0.000000   0.000000   0.000000   0.000000   0.000000   3.985278
    13  O    0.000000   0.000000   0.000000   0.000000   0.000000   0.000000
    14  O    0.000000   0.000000   0.000000   0.000000   0.000000   0.000000
    15  C    0.000000   0.000000   0.000000   0.000000   0.000000   0.000000
    16  H    0.000000   0.000000   0.000000   0.000000   0.000000   0.000000
    17  H    0.000000   0.000000   0.000000   0.000000   0.000000   0.000000
    18  H    0.000000   0.000000   0.000000   0.000000   0.000000   0.000000
    19  H    0.000000   0.000000   0.000000   0.000000   0.000000   0.000000
              13         14         15         16         17         18
     1  C    0.000000   0.000000   0.000000   0.000000   0.000000   0.000000
     2  C    0.000000   0.000000   0.000000   0.000000   0.000000   0.000000
     3  C    0.000000   0.000000   0.000000   0.000000   0.000000   0.000000
     4  C    0.000000   0.000000   0.000000   0.000000   0.000000   0.000000
     5  C    0.000000   0.000000   0.000000   0.000000   0.000000   0.000000
     6  C    0.000000   0.000000   0.000000   0.000000   0.000000   0.000000
     7  H    0.000000   0.000000   0.000000   0.000000   0.000000   0.000000
     8  H    0.000000   0.000000   0.000000   0.000000   0.000000   0.000000
     9  H    0.000000   0.000000   0.000000   0.000000   0.000000   0.000000
    10  H    0.000000   0.000000   0.000000   0.000000   0.000000   0.000000
    11  C    0.000000   0.000000   0.000000   0.000000   0.000000   0.000000
    12  C    0.000000   0.000000   0.000000   0.000000   0.000000   0.000000
    13  O    6.418667   0.000000   0.000000   0.000000   0.000000   0.000000
    14  O    0.000000   6.377218   0.000000   0.000000   0.000000   0.000000
    15  C    0.000000   0.000000   3.801472   0.000000   0.000000   0.000000
    16  H    0.000000   0.000000   0.000000   0.865664   0.000000   0.000000
    17  H    0.000000   0.000000   0.000000   0.000000   0.865296   0.000000
    18  H    0.000000   0.000000   0.000000   0.000000   0.000000   0.808927
    19  H    0.000000   0.000000   0.000000   0.000000   0.000000   0.000000
              19
     1  C    0.000000
     2  C    0.000000
     3  C    0.000000
     4  C    0.000000
     5  C    0.000000
     6  C    0.000000
     7  H    0.000000
     8  H    0.000000
     9  H    0.000000
    10  H    0.000000
    11  C    0.000000
    12  C    0.000000
    13  O    0.000000
    14  O    0.000000
    15  C    0.000000
    16  H    0.000000
    17  H    0.000000
    18  H    0.000000
    19  H    0.807070
 Mulliken charges:
               1
     1  C   -0.172276
     2  C   -0.086331
     3  C   -0.199967
     4  C   -0.049215
     5  C   -0.153017
     6  C   -0.082960
     7  H    0.162339
     8  H    0.165047
     9  H    0.155503
    10  H    0.155311
    11  C    0.035158
    12  C    0.014722
    13  O   -0.418667
    14  O   -0.377218
    15  C    0.198528
    16  H    0.134336
    17  H    0.134704
    18  H    0.191073
    19  H    0.192930
 Sum of Mulliken charges =   0.00000
 Mulliken charges with hydrogens summed into heavy atoms:
               1
     1  C   -0.172276
     2  C    0.068980
     3  C   -0.037628
     4  C   -0.049215
     5  C    0.012030
     6  C    0.072544
    11  C    0.228088
    12  C    0.205795
    13  O   -0.418667
    14  O   -0.377218
    15  C    0.467568
 Charge=              0.0000 electrons
 Dipole moment (field-independent basis, Debye):
    X=              0.2438    Y=             -0.3203    Z=             -0.0764  Tot=              0.4097
 N-N= 3.418680301731D+02 E-N=-5.399494787736D+02  KE=-1.064809906718D+02
