 Default is to use a total of   8 processors:
                                8 via shared-memory
                                1 via Linda
 Entering Link 1 = C:\G16W\l1.exe PID=     16500.
  
 Copyright (c) 1988-2019, Gaussian, Inc.  All Rights Reserved.
  
 This is part of the Gaussian(R) 16 program.  It is based on
 the Gaussian(R) 09 system (copyright 2009, Gaussian, Inc.),
 the Gaussian(R) 03 system (copyright 2003, Gaussian, Inc.),
 the Gaussian(R) 98 system (copyright 1998, Gaussian, Inc.),
 the Gaussian(R) 94 system (copyright 1995, Gaussian, Inc.),
 the Gaussian 92(TM) system (copyright 1992, Gaussian, Inc.),
 the Gaussian 90(TM) system (copyright 1990, Gaussian, Inc.),
 the Gaussian 88(TM) system (copyright 1988, Gaussian, Inc.),
 the Gaussian 86(TM) system (copyright 1986, Carnegie Mellon
 University), and the Gaussian 82(TM) system (copyright 1983,
 Carnegie Mellon University). Gaussian is a federally registered
 trademark of Gaussian, Inc.
  
 This software contains proprietary and confidential information,
 including trade secrets, belonging to Gaussian, Inc.
  
 This software is provided under written license and may be
 used, copied, transmitted, or stored only in accord with that
 written license.
  
 The following legend is applicable only to US Government
 contracts under FAR:
  
                    RESTRICTED RIGHTS LEGEND
  
 Use, reproduction and disclosure by the US Government is
 subject to restrictions as set forth in subparagraphs (a)
 and (c) of the Commercial Computer Software - Restricted
 Rights clause in FAR 52.227-19.
  
 Gaussian, Inc.
 340 Quinnipiac St., Bldg. 40, Wallingford CT 06492
  
  
 ---------------------------------------------------------------
 Warning -- This program may not be used in any manner that
 competes with the business of Gaussian, Inc. or will provide
 assistance to any competitor of Gaussian, Inc.  The licensee
 of this program is prohibited from giving any competitor of
 Gaussian, Inc. access to this program.  By using this program,
 the user acknowledges that Gaussian, Inc. is engaged in the
 business of creating and licensing software in the field of
 computational chemistry and represents and warrants to the
 licensee that it is not a competitor of Gaussian, Inc. and that
 it will not use this program in any manner prohibited above.
 ---------------------------------------------------------------
  

 Cite this work as:
 Gaussian 16, Revision C.01,
 M. J. Frisch, G. W. Trucks, H. B. Schlegel, G. E. Scuseria, 
 M. A. Robb, J. R. Cheeseman, G. Scalmani, V. Barone, 
 G. A. Petersson, H. Nakatsuji, X. Li, M. Caricato, A. V. Marenich, 
 J. Bloino, B. G. Janesko, R. Gomperts, B. Mennucci, H. P. Hratchian, 
 J. V. Ortiz, A. F. Izmaylov, J. L. Sonnenberg, D. Williams-Young, 
 F. Ding, F. Lipparini, F. Egidi, J. Goings, B. Peng, A. Petrone, 
 T. Henderson, D. Ranasinghe, V. G. Zakrzewski, J. Gao, N. Rega, 
 G. Zheng, W. Liang, M. Hada, M. Ehara, K. Toyota, R. Fukuda, 
 J. Hasegawa, M. Ishida, T. Nakajima, Y. Honda, O. Kitao, H. Nakai, 
 T. Vreven, K. Throssell, J. A. Montgomery, Jr., J. E. Peralta, 
 F. Ogliaro, M. J. Bearpark, J. J. Heyd, E. N. Brothers, K. N. Kudin, 
 V. N. Staroverov, T. A. Keith, R. Kobayashi, J. Normand, 
 K. Raghavachari, A. P. Rendell, J. C. Burant, S. S. Iyengar, 
 J. Tomasi, M. Cossi, J. M. Millam, M. Klene, C. Adamo, R. Cammi, 
 J. W. Ochterski, R. L. Martin, K. Morokuma, O. Farkas, 
 J. B. Foresman, and D. J. Fox, Gaussian, Inc., Wallingford CT, 2019.
 
 ******************************************
 Gaussian 16:  EM64W-G16RevC.01 30-May-2019
                13-Nov-2025 
 ******************************************
 %mem=6GB
 %chk=C:\Users\al6323\OneDrive - Imperial College London\Desktop\TSR20251113\TS(B
 erny)_PM6_exo.chk
 %nprocshared=8
 Will use up to    8 processors via shared memory.
 Default route: MaxDisk=10GB
 ----------------------------------------------------------------------
 # opt=(calcfc,tight,ts,maxcycles=200,noeigen) freq pm6 nosymm geom=con
 nectivity scf=(xqc,tight)
 ----------------------------------------------------------------------
 1/5=1,6=200,7=10,10=4,11=1,18=20,26=1,38=1,57=2/1,3;
 2/9=110,12=2,15=1,17=6,18=5,40=1/2;
 3/5=2,25=1,41=3900000,71=2,140=1/1,2,3;
 4/35=1/1;
 5/5=2,8=3,13=1,32=2,35=1,38=5/2,8;
 8/6=4,10=90,11=11/1;
 11/6=1,8=1,9=11,15=111,16=1,31=1/1,2,10;
 10/6=1,13=1,31=1/2;
 6/7=2,8=2,9=2,10=2,28=1/1;
 7/10=1,25=1,30=1/1,2,3,16;
 1/5=1,6=200,7=10,10=4,11=1,18=20,26=1/3(2);
 2/9=110,15=1/2;
 99//99;
 2/9=110,15=1/2;
 3/5=2,25=1,41=3900000,71=1,135=20/1,2,3;
 4/5=5,16=3,35=1/1;
 5/5=2,8=3,13=1,32=2,35=1,38=5/2,8;
 7/30=1/1,2,3,16;
 1/5=1,6=200,7=10,11=1,18=20,26=1/3(-5);
 2/9=110,15=1/2;
 6/7=2,8=2,9=2,10=2,19=2,28=1/1;
 99/9=1/99;
 -------------------
 Title Card Required
 -------------------
 Symbolic Z-matrix:
 Charge =  0 Multiplicity = 1
 C                    -0.17122   0.545     1.20476 
 C                     1.36077   0.56469   1.13494 
 C                     1.46787   1.461    -0.08315 
 C                    -0.00271   1.36526  -0.49687 
 C                    -0.83525   2.29364   0.18225 
 C                    -0.91749   1.6876    1.4693 
 H                     2.2701    2.04992  -0.4762 
 H                    -1.27438   3.20249  -0.1728 
 H                    -1.40808   2.01039   2.36374 
 H                     2.09522   0.03812   1.70784 
 C                    -1.07637  -1.18006  -0.06904 
 H                    -2.0805   -1.41994   0.21217 
 C                    -0.91204  -0.57243  -1.32182 
 H                    -1.8043   -0.40584  -1.8884 
 O                    -0.27555  -2.36275  -0.07129 
 O                    -0.00512  -1.37084  -2.08097 
 C                     0.74136  -1.90693  -0.97797 
 H                     1.39016  -2.70114  -1.28322 
 H                     1.33034  -1.13996  -0.51998 
 

 GradGradGradGradGradGradGradGradGradGradGradGradGradGradGradGradGradGrad
 Berny optimization.
 Initialization pass.
                           ----------------------------
                           !    Initial Parameters    !
                           ! (Angstroms and Degrees)  !
 --------------------------                            --------------------------
 ! Name  Definition              Value          Derivative Info.                !
 --------------------------------------------------------------------------------
 ! R1    R(1,2)                  1.5337         calculate D2E/DX2 analytically  !
 ! R2    R(1,6)                  1.3901         calculate D2E/DX2 analytically  !
 ! R3    R(1,11)                 2.3276         calculate D2E/DX2 analytically  !
 ! R4    R(2,3)                  1.5161         calculate D2E/DX2 analytically  !
 ! R5    R(2,10)                 1.07           calculate D2E/DX2 analytically  !
 ! R6    R(3,4)                  1.5307         calculate D2E/DX2 analytically  !
 ! R7    R(3,7)                  1.07           calculate D2E/DX2 analytically  !
 ! R8    R(4,5)                  1.4199         calculate D2E/DX2 analytically  !
 ! R9    R(4,13)                 2.2939         calculate D2E/DX2 analytically  !
 ! R10   R(5,6)                  1.425          calculate D2E/DX2 analytically  !
 ! R11   R(5,8)                  1.07           calculate D2E/DX2 analytically  !
 ! R12   R(6,9)                  1.07           calculate D2E/DX2 analytically  !
 ! R13   R(11,12)                1.07           calculate D2E/DX2 analytically  !
 ! R14   R(11,13)                1.402          calculate D2E/DX2 analytically  !
 ! R15   R(11,15)                1.4283         calculate D2E/DX2 analytically  !
 ! R16   R(13,14)                1.07           calculate D2E/DX2 analytically  !
 ! R17   R(13,16)                1.427          calculate D2E/DX2 analytically  !
 ! R18   R(15,17)                1.4366         calculate D2E/DX2 analytically  !
 ! R19   R(16,17)                1.4357         calculate D2E/DX2 analytically  !
 ! R20   R(17,18)                1.07           calculate D2E/DX2 analytically  !
 ! R21   R(17,19)                1.07           calculate D2E/DX2 analytically  !
 ! A1    A(2,1,6)              122.2996         calculate D2E/DX2 analytically  !
 ! A2    A(2,1,11)             111.9032         calculate D2E/DX2 analytically  !
 ! A3    A(6,1,11)             120.3017         calculate D2E/DX2 analytically  !
 ! A4    A(1,2,3)               96.5879         calculate D2E/DX2 analytically  !
 ! A5    A(1,2,10)             130.9147         calculate D2E/DX2 analytically  !
 ! A6    A(3,2,10)             132.2701         calculate D2E/DX2 analytically  !
 ! A7    A(2,3,4)               96.4488         calculate D2E/DX2 analytically  !
 ! A8    A(2,3,7)              132.3365         calculate D2E/DX2 analytically  !
 ! A9    A(4,3,7)              130.9543         calculate D2E/DX2 analytically  !
 ! A10   A(3,4,5)              113.1498         calculate D2E/DX2 analytically  !
 ! A11   A(3,4,13)             122.0655         calculate D2E/DX2 analytically  !
 ! A12   A(5,4,13)             119.4629         calculate D2E/DX2 analytically  !
 ! A13   A(4,5,6)              100.8216         calculate D2E/DX2 analytically  !
 ! A14   A(4,5,8)              129.5887         calculate D2E/DX2 analytically  !
 ! A15   A(6,5,8)              129.5884         calculate D2E/DX2 analytically  !
 ! A16   A(1,6,5)               98.4364         calculate D2E/DX2 analytically  !
 ! A17   A(1,6,9)              130.7811         calculate D2E/DX2 analytically  !
 ! A18   A(5,6,9)              130.7817         calculate D2E/DX2 analytically  !
 ! A19   A(1,11,12)            112.7846         calculate D2E/DX2 analytically  !
 ! A20   A(1,11,13)             97.0203         calculate D2E/DX2 analytically  !
 ! A21   A(1,11,15)            113.3604         calculate D2E/DX2 analytically  !
 ! A22   A(12,11,13)           116.2307         calculate D2E/DX2 analytically  !
 ! A23   A(12,11,15)           109.9341         calculate D2E/DX2 analytically  !
 ! A24   A(13,11,15)           106.9623         calculate D2E/DX2 analytically  !
 ! A25   A(4,13,11)             95.2333         calculate D2E/DX2 analytically  !
 ! A26   A(4,13,14)            112.9222         calculate D2E/DX2 analytically  !
 ! A27   A(4,13,16)            114.3307         calculate D2E/DX2 analytically  !
 ! A28   A(11,13,14)           116.2885         calculate D2E/DX2 analytically  !
 ! A29   A(11,13,16)           107.9007         calculate D2E/DX2 analytically  !
 ! A30   A(14,13,16)           109.5958         calculate D2E/DX2 analytically  !
 ! A31   A(11,15,17)            97.7666         calculate D2E/DX2 analytically  !
 ! A32   A(13,16,17)            97.5074         calculate D2E/DX2 analytically  !
 ! A33   A(15,17,16)           103.6096         calculate D2E/DX2 analytically  !
 ! A34   A(15,17,18)           111.946          calculate D2E/DX2 analytically  !
 ! A35   A(15,17,19)           110.2989         calculate D2E/DX2 analytically  !
 ! A36   A(16,17,18)           111.9168         calculate D2E/DX2 analytically  !
 ! A37   A(16,17,19)           110.3281         calculate D2E/DX2 analytically  !
 ! A38   A(18,17,19)           108.6863         calculate D2E/DX2 analytically  !
 ! D1    D(6,1,2,3)            -64.8831         calculate D2E/DX2 analytically  !
 ! D2    D(6,1,2,10)           120.1814         calculate D2E/DX2 analytically  !
 ! D3    D(11,1,2,3)            88.9517         calculate D2E/DX2 analytically  !
 ! D4    D(11,1,2,10)          -85.9838         calculate D2E/DX2 analytically  !
 ! D5    D(2,1,6,5)             77.3837         calculate D2E/DX2 analytically  !
 ! D6    D(2,1,6,9)           -102.9236         calculate D2E/DX2 analytically  !
 ! D7    D(11,1,6,5)           -74.3304         calculate D2E/DX2 analytically  !
 ! D8    D(11,1,6,9)           105.3622         calculate D2E/DX2 analytically  !
 ! D9    D(2,1,11,12)          160.7863         calculate D2E/DX2 analytically  !
 ! D10   D(2,1,11,13)          -76.8873         calculate D2E/DX2 analytically  !
 ! D11   D(2,1,11,15)           35.0371         calculate D2E/DX2 analytically  !
 ! D12   D(6,1,11,12)          -44.7898         calculate D2E/DX2 analytically  !
 ! D13   D(6,1,11,13)           77.5366         calculate D2E/DX2 analytically  !
 ! D14   D(6,1,11,15)         -170.539          calculate D2E/DX2 analytically  !
 ! D15   D(1,2,3,4)            -13.1944         calculate D2E/DX2 analytically  !
 ! D16   D(1,2,3,7)            161.27           calculate D2E/DX2 analytically  !
 ! D17   D(10,2,3,4)           161.6333         calculate D2E/DX2 analytically  !
 ! D18   D(10,2,3,7)           -23.9022         calculate D2E/DX2 analytically  !
 ! D19   D(2,3,4,5)             84.769          calculate D2E/DX2 analytically  !
 ! D20   D(2,3,4,13)           -69.2691         calculate D2E/DX2 analytically  !
 ! D21   D(7,3,4,5)            -89.8133         calculate D2E/DX2 analytically  !
 ! D22   D(7,3,4,13)           116.1486         calculate D2E/DX2 analytically  !
 ! D23   D(3,4,5,6)            -74.8593         calculate D2E/DX2 analytically  !
 ! D24   D(3,4,5,8)            104.7428         calculate D2E/DX2 analytically  !
 ! D25   D(13,4,5,6)            79.921          calculate D2E/DX2 analytically  !
 ! D26   D(13,4,5,8)          -100.477          calculate D2E/DX2 analytically  !
 ! D27   D(3,4,13,11)           79.746          calculate D2E/DX2 analytically  !
 ! D28   D(3,4,13,14)         -158.8139         calculate D2E/DX2 analytically  !
 ! D29   D(3,4,13,16)          -32.5974         calculate D2E/DX2 analytically  !
 ! D30   D(5,4,13,11)          -72.7176         calculate D2E/DX2 analytically  !
 ! D31   D(5,4,13,14)           48.7225         calculate D2E/DX2 analytically  !
 ! D32   D(5,4,13,16)          174.939          calculate D2E/DX2 analytically  !
 ! D33   D(4,5,6,1)             -2.4188         calculate D2E/DX2 analytically  !
 ! D34   D(4,5,6,9)            177.8885         calculate D2E/DX2 analytically  !
 ! D35   D(8,5,6,1)            177.9791         calculate D2E/DX2 analytically  !
 ! D36   D(8,5,6,9)             -1.7135         calculate D2E/DX2 analytically  !
 ! D37   D(1,11,13,4)           -1.1902         calculate D2E/DX2 analytically  !
 ! D38   D(1,11,13,14)        -119.9718         calculate D2E/DX2 analytically  !
 ! D39   D(1,11,13,16)         116.4786         calculate D2E/DX2 analytically  !
 ! D40   D(12,11,13,4)         118.5234         calculate D2E/DX2 analytically  !
 ! D41   D(12,11,13,14)         -0.2582         calculate D2E/DX2 analytically  !
 ! D42   D(12,11,13,16)       -123.8079         calculate D2E/DX2 analytically  !
 ! D43   D(15,11,13,4)        -118.2705         calculate D2E/DX2 analytically  !
 ! D44   D(15,11,13,14)        122.9479         calculate D2E/DX2 analytically  !
 ! D45   D(15,11,13,16)         -0.6017         calculate D2E/DX2 analytically  !
 ! D46   D(1,11,15,17)         -76.0938         calculate D2E/DX2 analytically  !
 ! D47   D(12,11,15,17)        156.6503         calculate D2E/DX2 analytically  !
 ! D48   D(13,11,15,17)         29.6258         calculate D2E/DX2 analytically  !
 ! D49   D(4,13,16,17)          75.8515         calculate D2E/DX2 analytically  !
 ! D50   D(11,13,16,17)        -28.6997         calculate D2E/DX2 analytically  !
 ! D51   D(14,13,16,17)       -156.2188         calculate D2E/DX2 analytically  !
 ! D52   D(11,15,17,16)        -49.039          calculate D2E/DX2 analytically  !
 ! D53   D(11,15,17,18)       -169.8092         calculate D2E/DX2 analytically  !
 ! D54   D(11,15,17,19)         69.0376         calculate D2E/DX2 analytically  !
 ! D55   D(13,16,17,15)         48.473          calculate D2E/DX2 analytically  !
 ! D56   D(13,16,17,18)        169.263          calculate D2E/DX2 analytically  !
 ! D57   D(13,16,17,19)        -69.5832         calculate D2E/DX2 analytically  !
 --------------------------------------------------------------------------------
 Trust Radius=3.00D-01 FncErr=1.00D-07 GrdErr=1.00D-07 EigMax=2.50D+02 EigMin=1.00D-04
 Number of steps in this run=    114 maximum allowed number of steps=    114.
 Search for a saddle point of order  1.
 GradGradGradGradGradGradGradGradGradGradGradGradGradGradGradGradGradGrad

                          Input orientation:                          
 ---------------------------------------------------------------------
 Center     Atomic      Atomic             Coordinates (Angstroms)
 Number     Number       Type             X           Y           Z
 ---------------------------------------------------------------------
      1          6           0       -0.171225    0.545002    1.204763
      2          6           0        1.360771    0.564691    1.134936
      3          6           0        1.467865    1.460998   -0.083151
      4          6           0       -0.002707    1.365258   -0.496871
      5          6           0       -0.835248    2.293645    0.182251
      6          6           0       -0.917489    1.687604    1.469300
      7          1           0        2.270097    2.049924   -0.476204
      8          1           0       -1.274382    3.202489   -0.172804
      9          1           0       -1.408078    2.010394    2.363743
     10          1           0        2.095217    0.038122    1.707836
     11          6           0       -1.076369   -1.180059   -0.069037
     12          1           0       -2.080500   -1.419943    0.212168
     13          6           0       -0.912043   -0.572427   -1.321818
     14          1           0       -1.804304   -0.405841   -1.888404
     15          8           0       -0.275547   -2.362749   -0.071288
     16          8           0       -0.005124   -1.370840   -2.080971
     17          6           0        0.741356   -1.906925   -0.977975
     18          1           0        1.390156   -2.701144   -1.283222
     19          1           0        1.330339   -1.139956   -0.519982
 ---------------------------------------------------------------------
                    Distance matrix (angstroms):
                    1          2          3          4          5
     1  C    0.000000
     2  C    1.533713   0.000000
     3  C    2.276925   1.516104   0.000000
     4  C    1.896516   2.272173   1.530657   0.000000
     5  C    2.131715   2.952861   2.463345   1.419941   0.000000
     6  C    1.390119   2.561874   2.855060   2.192387   1.424972
     7  H    3.324228   2.372459   1.070000   2.373780   3.183729
     8  H    3.190123   3.951227   3.249730   2.257785   1.070000
     9  H    2.240629   3.356568   3.815779   3.251827   2.273164
    10  H    2.376293   1.070000   2.371873   3.320136   4.000302
    11  C    2.327592   3.230070   3.667221   2.795430   3.491118
    12  H    2.914032   4.078311   4.580167   3.546449   3.916922
    13  C    2.860257   3.534737   3.366464   2.293916   3.237667
    14  H    3.624738   4.483327   4.177453   2.884251   3.537499
    15  O    3.177137   3.564045   4.202460   3.762126   4.696759
    16  O    3.807110   3.994247   3.765673   3.161584   4.386311
    17  C    3.407212   3.310129   3.559696   3.390025   4.634284
    18  H    4.377834   4.063746   4.332394   4.369672   5.661090
    19  H    2.840514   2.376026   2.640966   2.837894   4.119771
                    6          7          8          9         10
     6  C    0.000000
     7  H    3.751928   0.000000
     8  H    2.262467   3.739490   0.000000
     9  H    1.070000   4.647132   2.805893   0.000000
    10  H    3.442976   2.974552   4.990413   4.073468   0.000000
    11  C    3.258099   4.668769   4.388246   4.025846   3.834084
    12  H    3.548214   5.607274   4.707962   4.104709   4.669003
    13  C    3.591393   4.209252   3.962513   4.527734   4.312214
    14  H    4.055012   4.962442   4.030402   4.906724   5.323186
    15  O    4.380737   5.110376   5.655073   5.131898   3.814444
    16  O    4.773983   4.410616   5.115413   5.758169   4.555400
    17  C    4.654198   4.271472   5.551361   5.579654   3.581861
    18  H    5.671217   4.898797   6.571580   6.582481   4.116687
    19  H    4.123720   3.325717   5.075621   5.073411   2.633644
                   11         12         13         14         15
    11  C    0.000000
    12  H    1.070000   0.000000
    13  C    1.402027   2.106344   0.000000
    14  H    2.106989   2.348849   1.070000   0.000000
    15  O    1.428313   2.055988   2.274688   3.077093   0.000000
    16  O    2.287322   3.093231   1.426982   2.050696   2.257396
    17  C    2.158385   3.101042   2.152404   3.092332   1.436645
    18  H    3.141924   3.990378   3.135768   3.979854   2.087549
    19  H    2.448918   3.499751   2.448123   3.498212   2.067708
                   16         17         18         19
    16  O    0.000000
    17  C    1.435695   0.000000
    18  H    2.086365   1.070000   0.000000
    19  H    2.067234   1.070000   1.738798   0.000000
 Symmetry turned off by external request.
 Stoichiometry    C9H8O2
 Framework group  C1[X(C9H8O2)]
 Deg. of freedom    51
 Full point group                 C1      NOp   1
 Rotational constants (GHZ):           2.1660088           0.9346798           0.9139993
 Standard basis: VSTO-6G (5D, 7F)
    52 basis functions,   312 primitive gaussians,    52 cartesian basis functions
    28 alpha electrons       28 beta electrons
       nuclear repulsion energy       333.8489799041 Hartrees.
 Integral buffers will be    131072 words long.
 Regular integral format.
 Two-electron integral symmetry is turned off.
 Do NDO integrals.
 One-electron integrals computed using PRISM.
 NBasis=    52 RedAO= F EigKep=  0.00D+00  NBF=    52
 NBsUse=    52 1.00D-04 EigRej=  0.00D+00 NBFU=    52
 Simple Huckel Guess.
 Keep J ints in memory in canonical form, NReq=867036.
 Overlap will be assumed to be unity.
 Requested convergence on RMS density matrix=1.00D-08 within  32 cycles.
 Requested convergence on MAX density matrix=1.00D-06.
 Requested convergence on             energy=1.00D-06.
 No special actions if energy rises.
 SCF Done:  E(RPM6) =  0.347530593414     A.U. after   23 cycles
            NFock= 22  Conv=0.45D-08     -V/T= 1.0033
 QCSCF skips out because SCF is already converged.
 Range of M.O.s used for correlation:     1    52
 NBasis=    52 NAE=    28 NBE=    28 NFC=     0 NFV=     0
 NROrb=     52 NOA=    28 NOB=    28 NVA=    24 NVB=    24
 Symmetrizing basis deriv contribution to polar:
 IMax=3 JMax=2 DiffMx= 0.00D+00
 G2DrvN: will do    20 centers at a time, making    1 passes.
 Calling FoFCou, ICntrl=  3107 FMM=F I1Cent=   0 AccDes= 0.00D+00.
 End of G2Drv F.D. properties file   721 does not exist.
 End of G2Drv F.D. properties file   722 does not exist.
 End of G2Drv F.D. properties file   788 does not exist.
          IDoAtm=1111111111111111111
          Differentiating once with respect to nuclear coordinates.
          Electric field/nuclear overlap derivatives assumed to be zero.
 Keep J ints in memory in canonical form, NReq=869000.
          There are    60 degrees of freedom in the 1st order CPHF.  IDoFFX=5 NUNeed=    60.
 LinEq1:  Iter=  0 NonCon=    57 RMS=1.29D-02 Max=1.08D-01 NDo=    57
 AX will form    60 AO Fock derivatives at one time.
 LinEq1:  Iter=  1 NonCon=    57 RMS=2.59D-03 Max=3.43D-02 NDo=    60
 LinEq1:  Iter=  2 NonCon=    57 RMS=8.43D-04 Max=1.07D-02 NDo=    60
 LinEq1:  Iter=  3 NonCon=    57 RMS=3.37D-04 Max=4.75D-03 NDo=    60
 LinEq1:  Iter=  4 NonCon=    57 RMS=1.01D-04 Max=1.17D-03 NDo=    60
 LinEq1:  Iter=  5 NonCon=    57 RMS=2.36D-05 Max=2.71D-04 NDo=    60
 LinEq1:  Iter=  6 NonCon=    57 RMS=6.04D-06 Max=9.05D-05 NDo=    60
 LinEq1:  Iter=  7 NonCon=    57 RMS=1.49D-06 Max=1.44D-05 NDo=    60
 LinEq1:  Iter=  8 NonCon=    56 RMS=2.97D-07 Max=3.19D-06 NDo=    60
 LinEq1:  Iter=  9 NonCon=    35 RMS=5.65D-08 Max=4.26D-07 NDo=    60
 LinEq1:  Iter= 10 NonCon=     2 RMS=1.27D-08 Max=1.28D-07 NDo=    35
 LinEq1:  Iter= 11 NonCon=     0 RMS=2.70D-09 Max=2.75D-08 NDo=     2
 Linear equations converged to 1.000D-08 1.000D-07 after    11 iterations.
 End of Minotr F.D. properties file   721 does not exist.
 End of Minotr F.D. properties file   722 does not exist.
 End of Minotr F.D. properties file   788 does not exist.

 **********************************************************************

            Population analysis using the SCF Density.

 **********************************************************************

 Alpha  occ. eigenvalues --   -1.20557  -1.11430  -1.07666  -0.97818  -0.93767
 Alpha  occ. eigenvalues --   -0.89207  -0.83871  -0.78441  -0.74186  -0.73466
 Alpha  occ. eigenvalues --   -0.67432  -0.64547  -0.58915  -0.58272  -0.56732
 Alpha  occ. eigenvalues --   -0.56555  -0.55559  -0.52467  -0.50515  -0.49589
 Alpha  occ. eigenvalues --   -0.47338  -0.46408  -0.44220  -0.43744  -0.34789
 Alpha  occ. eigenvalues --   -0.34348  -0.32800  -0.30821
 Alpha virt. eigenvalues --   -0.03269  -0.02208   0.00377   0.02815   0.06064
 Alpha virt. eigenvalues --    0.06776   0.07117   0.10471   0.13774   0.13941
 Alpha virt. eigenvalues --    0.14411   0.15452   0.15829   0.16794   0.17426
 Alpha virt. eigenvalues --    0.18214   0.19085   0.19277   0.19861   0.20178
 Alpha virt. eigenvalues --    0.21352   0.21542   0.21705   0.22450
          Condensed to atoms (all electrons):
               1          2          3          4          5          6
     1  C    4.030874   0.000000   0.000000   0.000000   0.000000   0.000000
     2  C    0.000000   4.135677   0.000000   0.000000   0.000000   0.000000
     3  C    0.000000   0.000000   4.142586   0.000000   0.000000   0.000000
     4  C    0.000000   0.000000   0.000000   4.097647   0.000000   0.000000
     5  C    0.000000   0.000000   0.000000   0.000000   4.103197   0.000000
     6  C    0.000000   0.000000   0.000000   0.000000   0.000000   4.193809
     7  H    0.000000   0.000000   0.000000   0.000000   0.000000   0.000000
     8  H    0.000000   0.000000   0.000000   0.000000   0.000000   0.000000
     9  H    0.000000   0.000000   0.000000   0.000000   0.000000   0.000000
    10  H    0.000000   0.000000   0.000000   0.000000   0.000000   0.000000
    11  C    0.000000   0.000000   0.000000   0.000000   0.000000   0.000000
    12  H    0.000000   0.000000   0.000000   0.000000   0.000000   0.000000
    13  C    0.000000   0.000000   0.000000   0.000000   0.000000   0.000000
    14  H    0.000000   0.000000   0.000000   0.000000   0.000000   0.000000
    15  O    0.000000   0.000000   0.000000   0.000000   0.000000   0.000000
    16  O    0.000000   0.000000   0.000000   0.000000   0.000000   0.000000
    17  C    0.000000   0.000000   0.000000   0.000000   0.000000   0.000000
    18  H    0.000000   0.000000   0.000000   0.000000   0.000000   0.000000
    19  H    0.000000   0.000000   0.000000   0.000000   0.000000   0.000000
               7          8          9         10         11         12
     1  C    0.000000   0.000000   0.000000   0.000000   0.000000   0.000000
     2  C    0.000000   0.000000   0.000000   0.000000   0.000000   0.000000
     3  C    0.000000   0.000000   0.000000   0.000000   0.000000   0.000000
     4  C    0.000000   0.000000   0.000000   0.000000   0.000000   0.000000
     5  C    0.000000   0.000000   0.000000   0.000000   0.000000   0.000000
     6  C    0.000000   0.000000   0.000000   0.000000   0.000000   0.000000
     7  H    0.842652   0.000000   0.000000   0.000000   0.000000   0.000000
     8  H    0.000000   0.851457   0.000000   0.000000   0.000000   0.000000
     9  H    0.000000   0.000000   0.835487   0.000000   0.000000   0.000000
    10  H    0.000000   0.000000   0.000000   0.842812   0.000000   0.000000
    11  C    0.000000   0.000000   0.000000   0.000000   4.029010   0.000000
    12  H    0.000000   0.000000   0.000000   0.000000   0.000000   0.822967
    13  C    0.000000   0.000000   0.000000   0.000000   0.000000   0.000000
    14  H    0.000000   0.000000   0.000000   0.000000   0.000000   0.000000
    15  O    0.000000   0.000000   0.000000   0.000000   0.000000   0.000000
    16  O    0.000000   0.000000   0.000000   0.000000   0.000000   0.000000
    17  C    0.000000   0.000000   0.000000   0.000000   0.000000   0.000000
    18  H    0.000000   0.000000   0.000000   0.000000   0.000000   0.000000
    19  H    0.000000   0.000000   0.000000   0.000000   0.000000   0.000000
              13         14         15         16         17         18
     1  C    0.000000   0.000000   0.000000   0.000000   0.000000   0.000000
     2  C    0.000000   0.000000   0.000000   0.000000   0.000000   0.000000
     3  C    0.000000   0.000000   0.000000   0.000000   0.000000   0.000000
     4  C    0.000000   0.000000   0.000000   0.000000   0.000000   0.000000
     5  C    0.000000   0.000000   0.000000   0.000000   0.000000   0.000000
     6  C    0.000000   0.000000   0.000000   0.000000   0.000000   0.000000
     7  H    0.000000   0.000000   0.000000   0.000000   0.000000   0.000000
     8  H    0.000000   0.000000   0.000000   0.000000   0.000000   0.000000
     9  H    0.000000   0.000000   0.000000   0.000000   0.000000   0.000000
    10  H    0.000000   0.000000   0.000000   0.000000   0.000000   0.000000
    11  C    0.000000   0.000000   0.000000   0.000000   0.000000   0.000000
    12  H    0.000000   0.000000   0.000000   0.000000   0.000000   0.000000
    13  C    3.939484   0.000000   0.000000   0.000000   0.000000   0.000000
    14  H    0.000000   0.826817   0.000000   0.000000   0.000000   0.000000
    15  O    0.000000   0.000000   6.364651   0.000000   0.000000   0.000000
    16  O    0.000000   0.000000   0.000000   6.362662   0.000000   0.000000
    17  C    0.000000   0.000000   0.000000   0.000000   3.849046   0.000000
    18  H    0.000000   0.000000   0.000000   0.000000   0.000000   0.856090
    19  H    0.000000   0.000000   0.000000   0.000000   0.000000   0.000000
              19
     1  C    0.000000
     2  C    0.000000
     3  C    0.000000
     4  C    0.000000
     5  C    0.000000
     6  C    0.000000
     7  H    0.000000
     8  H    0.000000
     9  H    0.000000
    10  H    0.000000
    11  C    0.000000
    12  H    0.000000
    13  C    0.000000
    14  H    0.000000
    15  O    0.000000
    16  O    0.000000
    17  C    0.000000
    18  H    0.000000
    19  H    0.873075
 Mulliken charges:
               1
     1  C   -0.030874
     2  C   -0.135677
     3  C   -0.142586
     4  C   -0.097647
     5  C   -0.103197
     6  C   -0.193809
     7  H    0.157348
     8  H    0.148543
     9  H    0.164513
    10  H    0.157188
    11  C   -0.029010
    12  H    0.177033
    13  C    0.060516
    14  H    0.173183
    15  O   -0.364651
    16  O   -0.362662
    17  C    0.150954
    18  H    0.143910
    19  H    0.126925
 Sum of Mulliken charges =   0.00000
 Mulliken charges with hydrogens summed into heavy atoms:
               1
     1  C   -0.030874
     2  C    0.021511
     3  C    0.014762
     4  C   -0.097647
     5  C    0.045346
     6  C   -0.029296
    11  C    0.148023
    13  C    0.233699
    15  O   -0.364651
    16  O   -0.362662
    17  C    0.421789
 APT charges:
               1
     1  C   -0.030874
     2  C   -0.135677
     3  C   -0.142586
     4  C   -0.097647
     5  C   -0.103197
     6  C   -0.193809
     7  H    0.157348
     8  H    0.148543
     9  H    0.164513
    10  H    0.157188
    11  C   -0.029010
    12  H    0.177033
    13  C    0.060516
    14  H    0.173183
    15  O   -0.364651
    16  O   -0.362662
    17  C    0.150954
    18  H    0.143910
    19  H    0.126925
 Sum of APT charges =   0.00000
 APT charges with hydrogens summed into heavy atoms:
               1
     1  C   -0.030874
     2  C    0.021511
     3  C    0.014762
     4  C   -0.097647
     5  C    0.045346
     6  C   -0.029296
    11  C    0.148023
    13  C    0.233699
    15  O   -0.364651
    16  O   -0.362662
    17  C    0.421789
 Charge=              0.0000 electrons
 Dipole moment (field-independent basis, Debye):
    X=              0.1302    Y=              1.3799    Z=              0.5170  Tot=              1.4793
 N-N= 3.338489799041D+02 E-N=-5.245931662718D+02  KE=-1.061005286664D+02
  Exact polarizability:       0.000       0.000       0.000       0.000       0.000       0.000
 Approx polarizability:      63.706       1.748      95.897      -3.398     -11.758     107.732
 Calling FoFJK, ICntrl=    100127 FMM=F ISym2X=0 I1Cent= 0 IOpClX= 0 NMat=1 NMatS=1 NMatT=0.
 -------------------------------------------------------------------
 Center     Atomic                   Forces (Hartrees/Bohr)
 Number     Number              X              Y              Z
 -------------------------------------------------------------------
      1        6           0.098310622    0.004064854   -0.073648718
      2        6          -0.054394926    0.047535810   -0.078804850
      3        6          -0.057209275   -0.083096498    0.052689724
      4        6           0.056131138   -0.021575020    0.087238924
      5        6          -0.022857743   -0.002298236    0.008929046
      6        6          -0.028546544    0.011700781   -0.020858885
      7        1          -0.006013664   -0.008736346    0.001078225
      8        1          -0.001369512    0.000289991   -0.000288076
      9        1          -0.000384455   -0.000163379   -0.000694153
     10        1          -0.006495775    0.007230087   -0.002686232
     11        6          -0.013875199   -0.012706433    0.006685817
     12        1          -0.000999795    0.007079172    0.027373035
     13        6          -0.010353605   -0.000233694   -0.015724998
     14        1           0.003702290    0.027848701   -0.011304988
     15        8           0.002603430    0.022937846    0.020578603
     16        8           0.000537928    0.033206083    0.008128107
     17        6           0.029500547   -0.031896466   -0.008927814
     18        1          -0.000902964   -0.015474488   -0.007668668
     19        1           0.012617500    0.014287235    0.007905902
 -------------------------------------------------------------------
 Cartesian Forces:  Max     0.098310622 RMS     0.032502639
 FormGI is forming the generalized inverse of G from B-inverse, IUseBI=4.

 GradGradGradGradGradGradGradGradGradGradGradGradGradGradGradGradGradGrad
 Berny optimization.
 Internal  Forces:  Max     0.114532763 RMS     0.018797886
 Search for a saddle point.
 Step number   1 out of a maximum of  114
 All quantities printed in internal units (Hartrees-Bohrs-Radians)
 Swapping is turned off.
 Second derivative matrix not updated -- analytic derivatives used.
 ITU=  0
     Eigenvalues ---   -0.11413  -0.01537  -0.00467   0.00066   0.00139
     Eigenvalues ---    0.00487   0.00869   0.01126   0.01377   0.01612
     Eigenvalues ---    0.01779   0.02065   0.02576   0.02883   0.03045
     Eigenvalues ---    0.03242   0.03781   0.03971   0.04476   0.05252
     Eigenvalues ---    0.06111   0.06540   0.07079   0.07755   0.08304
     Eigenvalues ---    0.08429   0.08642   0.08689   0.09058   0.12777
     Eigenvalues ---    0.15064   0.16553   0.18384   0.22035   0.23748
     Eigenvalues ---    0.24659   0.25526   0.26863   0.26955   0.27015
     Eigenvalues ---    0.27253   0.27778   0.28128   0.30896   0.31096
     Eigenvalues ---    0.32048   0.34071   0.36421   0.40518   0.55310
     Eigenvalues ---    0.58954
 Eigenvectors required to have negative eigenvalues:
                          R9        R3        R14       A1        R10
   1                   -0.67251  -0.64492   0.13194  -0.10464  -0.09040
                          R1        R4        A10       R6        R8
   1                    0.08728  -0.08408  -0.08337   0.08118   0.08021
 RFO step:  Lambda0=6.556652578D-03 Lambda=-1.28940263D-01.
 Linear search not attempted -- option 19 set.
 Maximum step size (   0.300) exceeded in Quadratic search.
    -- Step size scaled by   0.377
 Iteration  1 RMS(Cart)=  0.04325052 RMS(Int)=  0.00177961
 Iteration  2 RMS(Cart)=  0.00192014 RMS(Int)=  0.00101519
 Iteration  3 RMS(Cart)=  0.00000240 RMS(Int)=  0.00101519
 Iteration  4 RMS(Cart)=  0.00000000 RMS(Int)=  0.00101519
 Variable       Old X    -DE/DX   Delta X   Delta X   Delta X     New X
                                 (Linear)    (Quad)   (Total)
    R1        2.89830  -0.07099   0.00000  -0.05083  -0.05134   2.84696
    R2        2.62694   0.01851   0.00000   0.02136   0.02150   2.64845
    R3        4.39851  -0.03434   0.00000  -0.12110  -0.11961   4.27890
    R4        2.86502  -0.11453   0.00000  -0.09961  -0.10164   2.76338
    R5        2.02201  -0.00946   0.00000  -0.00399  -0.00399   2.01801
    R6        2.89252  -0.06356   0.00000  -0.05668  -0.05666   2.83586
    R7        2.02201  -0.00971   0.00000  -0.00313  -0.00313   2.01888
    R8        2.68330   0.00350   0.00000   0.00280   0.00291   2.68621
    R9        4.33487  -0.02850   0.00000   0.17199   0.17071   4.50559
   R10        2.69281  -0.04771   0.00000  -0.01742  -0.01652   2.67628
   R11        2.02201   0.00090   0.00000  -0.00224  -0.00224   2.01976
   R12        2.02201  -0.00045   0.00000  -0.00328  -0.00328   2.01872
   R13        2.02201   0.00655   0.00000   0.00369   0.00369   2.02570
   R14        2.64945   0.01078   0.00000  -0.00806  -0.00731   2.64214
   R15        2.69912   0.00491   0.00000   0.01022   0.01001   2.70913
   R16        2.02201   0.00723   0.00000   0.00137   0.00137   2.02338
   R17        2.69661   0.00252   0.00000  -0.01702  -0.01712   2.67948
   R18        2.71487   0.01483   0.00000   0.00190   0.00227   2.71713
   R19        2.71307   0.01698   0.00000   0.01853   0.01897   2.73204
   R20        2.02201   0.01313   0.00000   0.00833   0.00833   2.03034
   R21        2.02201   0.02057   0.00000   0.01769   0.01769   2.03969
    A1        2.13453   0.02426   0.00000   0.04808   0.04775   2.18228
    A2        1.95308  -0.00581   0.00000   0.02551   0.02449   1.97756
    A3        2.09966  -0.01136   0.00000  -0.02614  -0.03080   2.06886
    A4        1.68578   0.00458   0.00000  -0.00965  -0.01019   1.67558
    A5        2.28489  -0.00336   0.00000   0.00014   0.00041   2.28530
    A6        2.30855  -0.00115   0.00000   0.00965   0.00988   2.31843
    A7        1.68335   0.00914   0.00000  -0.01241  -0.01273   1.67062
    A8        2.30971  -0.00494   0.00000   0.00387   0.00406   2.31377
    A9        2.28558  -0.00485   0.00000   0.00692   0.00696   2.29255
   A10        1.97484   0.03218   0.00000   0.06462   0.06531   2.04014
   A11        2.13045  -0.01956   0.00000  -0.02507  -0.02613   2.10431
   A12        2.08502  -0.00578   0.00000  -0.01902  -0.01978   2.06524
   A13        1.75967  -0.01469   0.00000  -0.04279  -0.04303   1.71664
   A14        2.26175   0.00775   0.00000   0.02630   0.02629   2.28804
   A15        2.26174   0.00688   0.00000   0.01637   0.01650   2.27825
   A16        1.71804  -0.00506   0.00000  -0.02760  -0.02798   1.69006
   A17        2.28256   0.00284   0.00000   0.01713   0.01705   2.29961
   A18        2.28257   0.00228   0.00000   0.01066   0.01054   2.29311
   A19        1.96846  -0.00524   0.00000  -0.03150  -0.03250   1.93596
   A20        1.69332  -0.01484   0.00000   0.03278   0.03369   1.72701
   A21        1.97851   0.00007   0.00000  -0.01816  -0.01860   1.95991
   A22        2.02861   0.01856   0.00000   0.02628   0.02571   2.05432
   A23        1.91871   0.00015   0.00000   0.00072   0.00051   1.91922
   A24        1.86684   0.00079   0.00000  -0.00650  -0.00611   1.86073
   A25        1.66213  -0.00832   0.00000  -0.07698  -0.07768   1.58445
   A26        1.97086  -0.00988   0.00000  -0.00590  -0.00428   1.96658
   A27        1.99545   0.00125   0.00000  -0.00051  -0.00044   1.99501
   A28        2.02962   0.02000   0.00000   0.05450   0.05317   2.08279
   A29        1.88322  -0.00427   0.00000   0.01101   0.01032   1.89355
   A30        1.91281   0.00121   0.00000   0.01146   0.01018   1.92299
   A31        1.70635   0.01790   0.00000   0.01921   0.01868   1.72503
   A32        1.70182   0.02085   0.00000   0.02260   0.02241   1.72424
   A33        1.80833  -0.01249   0.00000  -0.00860  -0.00887   1.79946
   A34        1.95383   0.00846   0.00000   0.00755   0.00748   1.96131
   A35        1.92508  -0.00433   0.00000  -0.00245  -0.00241   1.92267
   A36        1.95332   0.00973   0.00000   0.00426   0.00418   1.95750
   A37        1.92559  -0.00669   0.00000  -0.01573  -0.01559   1.91000
   A38        1.89693   0.00438   0.00000   0.01339   0.01338   1.91031
    D1       -1.13242  -0.00154   0.00000  -0.06319  -0.06518  -1.19760
    D2        2.09756  -0.00233   0.00000  -0.06515  -0.06670   2.03086
    D3        1.55250   0.01034   0.00000   0.03471   0.03557   1.58807
    D4       -1.50070   0.00955   0.00000   0.03274   0.03404  -1.46666
    D5        1.35060  -0.00896   0.00000  -0.00121   0.00029   1.35090
    D6       -1.79636   0.00306   0.00000   0.03471   0.03422  -1.76213
    D7       -1.29731  -0.02429   0.00000  -0.12217  -0.12052  -1.41784
    D8        1.83892  -0.01227   0.00000  -0.08625  -0.08660   1.75232
    D9        2.80625  -0.01450   0.00000  -0.07474  -0.07419   2.73206
   D10       -1.34194  -0.00366   0.00000  -0.03837  -0.03909  -1.38102
   D11        0.61151  -0.01039   0.00000  -0.03440  -0.03477   0.57674
   D12       -0.78173   0.00759   0.00000   0.04248   0.04143  -0.74030
   D13        1.35327   0.01843   0.00000   0.07886   0.07653   1.42980
   D14       -2.97647   0.01170   0.00000   0.08283   0.08084  -2.89563
   D15       -0.23029   0.00908   0.00000   0.05069   0.05073  -0.17956
   D16        2.81469   0.00214   0.00000   0.03366   0.03425   2.84895
   D17        2.82103   0.00972   0.00000   0.05191   0.05151   2.87254
   D18       -0.41717   0.00278   0.00000   0.03489   0.03504  -0.38214
   D19        1.47950  -0.00027   0.00000   0.01039   0.01137   1.49087
   D20       -1.20897  -0.01554   0.00000  -0.03354  -0.03272  -1.24169
   D21       -1.56754   0.00655   0.00000   0.02729   0.02775  -1.53978
   D22        2.02717  -0.00872   0.00000  -0.01664  -0.01634   2.01084
   D23       -1.30654   0.01025   0.00000  -0.05066  -0.05314  -1.35968
   D24        1.82811   0.00167   0.00000  -0.06729  -0.06931   1.75880
   D25        1.39488   0.02079   0.00000  -0.01050  -0.01256   1.38233
   D26       -1.75365   0.01221   0.00000  -0.02713  -0.02872  -1.78238
   D27        1.39183   0.00120   0.00000   0.01824   0.01850   1.41033
   D28       -2.77183   0.01591   0.00000   0.03606   0.03631  -2.73551
   D29       -0.56893   0.01006   0.00000   0.04643   0.04638  -0.52255
   D30       -1.26916  -0.02403   0.00000  -0.04881  -0.04734  -1.31650
   D31        0.85037  -0.00932   0.00000  -0.03099  -0.02953   0.82084
   D32        3.05326  -0.01517   0.00000  -0.02062  -0.01946   3.03381
   D33       -0.04222   0.00359   0.00000   0.03550   0.03319  -0.00902
   D34        3.10474  -0.00843   0.00000  -0.00045  -0.00057   3.10417
   D35        3.10632   0.01216   0.00000   0.05208   0.04917  -3.12770
   D36       -0.02991   0.00014   0.00000   0.01612   0.01540  -0.01450
   D37       -0.02077  -0.00166   0.00000   0.00181   0.00090  -0.01987
   D38       -2.09390   0.00756   0.00000   0.03553   0.03651  -2.05739
   D39        2.03294  -0.00490   0.00000  -0.02751  -0.02794   2.00499
   D40        2.06862  -0.00952   0.00000  -0.00373  -0.00444   2.06418
   D41       -0.00451  -0.00031   0.00000   0.02999   0.03117   0.02667
   D42       -2.16085  -0.01277   0.00000  -0.03305  -0.03329  -2.19414
   D43       -2.06421   0.00406   0.00000   0.01015   0.00928  -2.05493
   D44        2.14585   0.01327   0.00000   0.04387   0.04489   2.19074
   D45       -0.01050   0.00081   0.00000  -0.01918  -0.01957  -0.03007
   D46       -1.32809   0.00927   0.00000  -0.02543  -0.02633  -1.35442
   D47        2.73406   0.01613   0.00000   0.03050   0.03004   2.76410
   D48        0.51707  -0.00771   0.00000   0.00163   0.00170   0.51877
   D49        1.32386  -0.00479   0.00000  -0.05422  -0.05448   1.26938
   D50       -0.50090   0.00687   0.00000   0.03128   0.03186  -0.46905
   D51       -2.72653  -0.01619   0.00000  -0.05291  -0.05196  -2.77849
   D52       -0.85589   0.02455   0.00000   0.03226   0.03187  -0.82402
   D53       -2.96373   0.01614   0.00000   0.02849   0.02844  -2.93529
   D54        1.20493   0.00785   0.00000   0.00805   0.00791   1.21284
   D55        0.84601  -0.02213   0.00000  -0.04202  -0.04169   0.80433
   D56        2.95420  -0.01458   0.00000  -0.03603  -0.03600   2.91819
   D57       -1.21446  -0.00707   0.00000  -0.02703  -0.02704  -1.24150
         Item               Value     Threshold  Converged?
 Maximum Force            0.114533     0.000015     NO 
 RMS     Force            0.018798     0.000010     NO 
 Maximum Displacement     0.154380     0.000060     NO 
 RMS     Displacement     0.043868     0.000040     NO 
 Predicted change in Energy=-4.446273D-02
 GradGradGradGradGradGradGradGradGradGradGradGradGradGradGradGradGradGrad

                          Input orientation:                          
 ---------------------------------------------------------------------
 Center     Atomic      Atomic             Coordinates (Angstroms)
 Number     Number       Type             X           Y           Z
 ---------------------------------------------------------------------
      1          6           0       -0.154893    0.560342    1.132300
      2          6           0        1.351318    0.573275    1.103290
      3          6           0        1.474291    1.438500   -0.069157
      4          6           0        0.021682    1.391214   -0.442937
      5          6           0       -0.838291    2.322721    0.199985
      6          6           0       -0.963059    1.661507    1.446151
      7          1           0        2.286763    2.008319   -0.464826
      8          1           0       -1.248348    3.249876   -0.138538
      9          1           0       -1.480791    1.932111    2.340529
     10          1           0        2.067121    0.045579    1.694515
     11          6           0       -1.059239   -1.141192   -0.056808
     12          1           0       -2.045714   -1.371364    0.293862
     13          6           0       -0.935357   -0.599803   -1.339930
     14          1           0       -1.817317   -0.410335   -1.916733
     15          8           0       -0.242417   -2.319001   -0.028295
     16          8           0       -0.029314   -1.400618   -2.080394
     17          6           0        0.755854   -1.918646   -0.982532
     18          1           0        1.384411   -2.736121   -1.284203
     19          1           0        1.366087   -1.128125   -0.573010
 ---------------------------------------------------------------------
                    Distance matrix (angstroms):
                    1          2          3          4          5
     1  C    0.000000
     2  C    1.506546   0.000000
     3  C    2.206559   1.462316   0.000000
     4  C    1.789664   2.197219   1.500672   0.000000
     5  C    2.107659   2.944641   2.490445   1.421481   0.000000
     6  C    1.401498   2.580338   2.878639   2.147423   1.416229
     7  H    3.257167   2.322369   1.068344   2.347742   3.210418
     8  H    3.169269   3.932504   3.270880   2.271621   1.068813
     9  H    2.258223   3.376097   3.844833   3.208999   2.268769
    10  H    2.349130   1.067888   2.324267   3.250115   3.982513
    11  C    2.264296   3.177421   3.615762   2.780389   3.480439
    12  H    2.830136   3.997076   4.518578   3.528290   3.887538
    13  C    2.840243   3.546028   3.402344   2.384254   3.304831
    14  H    3.605894   4.486454   4.203142   2.966407   3.592851
    15  O    3.105681   3.490807   4.131291   3.742641   4.685377
    16  O    3.765971   3.992272   3.790315   3.237003   4.440475
    17  C    3.383394   3.303771   3.552582   3.432979   4.682824
    18  H    4.367563   4.080847   4.348778   4.427149   5.721459
    19  H    2.841195   2.388506   2.617851   2.858568   4.167151
                    6          7          8          9         10
     6  C    0.000000
     7  H    3.785956   0.000000
     8  H    2.261757   3.760976   0.000000
     9  H    1.068262   4.697903   2.817145   0.000000
    10  H    3.443094   2.926319   4.961848   4.069891   0.000000
    11  C    3.181706   4.613202   4.395898   3.920474   3.774875
    12  H    3.420265   5.546911   4.709419   3.926949   4.570007
    13  C    3.588389   4.236764   4.044915   4.500429   4.317319
    14  H    4.041197   4.980100   4.108875   4.870788   5.323328
    15  O    4.305549   5.031204   5.660074   5.021638   3.727369
    16  O    4.762877   4.426638   5.184973   5.723497   4.553730
    17  C    4.655175   4.246500   5.607386   5.556405   3.569900
    18  H    5.683711   4.898503   6.638985   6.568139   4.132397
    19  H    4.157401   3.270571   5.117708   5.094945   2.647773
                   11         12         13         14         15
    11  C    0.000000
    12  H    1.071952   0.000000
    13  C    1.398160   2.120725   0.000000
    14  H    2.137324   2.421254   1.070726   0.000000
    15  O    1.433612   2.062445   2.270725   3.112798   0.000000
    16  O    2.285376   3.115094   1.417922   2.050463   2.258307
    17  C    2.180817   3.126896   2.174230   3.125531   1.437844
    18  H    3.165710   4.014798   3.154089   4.007547   2.097108
    19  H    2.479686   3.528600   2.482727   3.529146   2.074171
                   16         17         18         19
    16  O    0.000000
    17  C    1.445733   0.000000
    18  H    2.101453   1.074408   0.000000
    19  H    2.072101   1.079359   1.758346   0.000000
 Symmetry turned off by external request.
 Stoichiometry    C9H8O2
 Framework group  C1[X(C9H8O2)]
 Deg. of freedom    51
 Full point group                 C1      NOp   1
 Rotational constants (GHZ):           2.1864393           0.9434003           0.9145250
 Standard basis: VSTO-6G (5D, 7F)
    52 basis functions,   312 primitive gaussians,    52 cartesian basis functions
    28 alpha electrons       28 beta electrons
       nuclear repulsion energy       334.6681576429 Hartrees.
 Integral buffers will be    131072 words long.
 Regular integral format.
 Two-electron integral symmetry is turned off.
 Do NDO integrals.
 One-electron integrals computed using PRISM.
 NBasis=    52 RedAO= F EigKep=  0.00D+00  NBF=    52
 NBsUse=    52 1.00D-04 EigRej=  0.00D+00 NBFU=    52
 Initial guess from the checkpoint file:  "C:\Users\al6323\OneDrive - Imperial College London\Desktop\TSR20251113\TS(Berny)_PM6_exo.chk"
 B after Tr=     0.001541    0.007180    0.000682
         Rot=    0.999998    0.001879   -0.000851   -0.000860 Ang=   0.26 deg.
 Keep J ints in memory in canonical form, NReq=867036.
 Overlap will be assumed to be unity.
 Requested convergence on RMS density matrix=1.00D-08 within  32 cycles.
 Requested convergence on MAX density matrix=1.00D-06.
 Requested convergence on             energy=1.00D-06.
 No special actions if energy rises.
 SCF Done:  E(RPM6) =  0.303924323493     A.U. after   19 cycles
            NFock= 18  Conv=0.39D-08     -V/T= 1.0029
 QCSCF skips out because SCF is already converged.
 Calling FoFJK, ICntrl=      2127 FMM=F ISym2X=0 I1Cent= 0 IOpClX= 0 NMat=1 NMatS=1 NMatT=0.
 -------------------------------------------------------------------
 Center     Atomic                   Forces (Hartrees/Bohr)
 Number     Number              X              Y              Z
 -------------------------------------------------------------------
      1        6           0.070793261    0.004463207   -0.060330321
      2        6          -0.038802961    0.027210145   -0.052231838
      3        6          -0.042642565   -0.056524356    0.031126839
      4        6           0.042316657   -0.013754508    0.068962580
      5        6          -0.019476468   -0.000510824    0.000425151
      6        6          -0.022083377    0.005263378   -0.009245830
      7        1          -0.003720996   -0.006993062   -0.000965302
      8        1          -0.001074149   -0.000273250   -0.000760967
      9        1          -0.000631169   -0.001034960   -0.000572518
     10        1          -0.004274180    0.005993191   -0.000286932
     11        6          -0.011707704   -0.012388419    0.005072335
     12        1           0.001623690    0.008224415    0.024261037
     13        6          -0.013026008   -0.010125332   -0.012972956
     14        1           0.005226077    0.025951368   -0.009189087
     15        8           0.004841750    0.021771108    0.017397681
     16        8           0.003632781    0.029634038    0.006833794
     17        6           0.022588114   -0.024336791   -0.006167451
     18        1          -0.003632944   -0.012878848   -0.006111520
     19        1           0.010050190    0.010309502    0.004755304
 -------------------------------------------------------------------
 Cartesian Forces:  Max     0.070793261 RMS     0.024058289

 GradGradGradGradGradGradGradGradGradGradGradGradGradGradGradGradGradGrad
 Berny optimization.
 FormGI is forming the generalized inverse of G from B-inverse, IUseBI=4.
 Internal  Forces:  Max     0.077466782 RMS     0.014045626
 Search for a saddle point.
 Step number   2 out of a maximum of  114
 All quantities printed in internal units (Hartrees-Bohrs-Radians)
 Swapping is turned off.
 Update second derivatives using D2CorX and points    1    2
 ITU=  0  0
     Eigenvalues ---   -0.11300  -0.01696  -0.00228   0.00071   0.00172
     Eigenvalues ---    0.00608   0.00871   0.01131   0.01378   0.01618
     Eigenvalues ---    0.01801   0.02079   0.02574   0.02867   0.03002
     Eigenvalues ---    0.03246   0.03780   0.03966   0.04437   0.05245
     Eigenvalues ---    0.06156   0.06528   0.07074   0.07719   0.08297
     Eigenvalues ---    0.08423   0.08639   0.08685   0.09023   0.12763
     Eigenvalues ---    0.15221   0.16545   0.18390   0.22010   0.23781
     Eigenvalues ---    0.24870   0.25520   0.26865   0.26954   0.27015
     Eigenvalues ---    0.27248   0.27771   0.28126   0.31085   0.31478
     Eigenvalues ---    0.32321   0.34066   0.36431   0.40553   0.55310
     Eigenvalues ---    0.59224
 Eigenvectors required to have negative eigenvalues:
                          R9        R3        R14       A1        R4
   1                   -0.66673  -0.65222   0.12502  -0.10806  -0.09312
                          R10       R1        A10       R8        R6
   1                   -0.08875   0.08817  -0.08652   0.08101   0.08090
 RFO step:  Lambda0=4.134748815D-03 Lambda=-9.32164437D-02.
 Linear search not attempted -- option 19 set.
 Maximum step size (   0.300) exceeded in Quadratic search.
    -- Step size scaled by   0.311
 Iteration  1 RMS(Cart)=  0.05215415 RMS(Int)=  0.00180013
 Iteration  2 RMS(Cart)=  0.00210609 RMS(Int)=  0.00056891
 Iteration  3 RMS(Cart)=  0.00000253 RMS(Int)=  0.00056891
 Iteration  4 RMS(Cart)=  0.00000000 RMS(Int)=  0.00056891
 Variable       Old X    -DE/DX   Delta X   Delta X   Delta X     New X
                                 (Linear)    (Quad)   (Total)
    R1        2.84696  -0.05139   0.00000  -0.06342  -0.06406   2.78290
    R2        2.64845   0.01480   0.00000   0.00604   0.00585   2.65430
    R3        4.27890  -0.02938   0.00000  -0.13344  -0.13299   4.14591
    R4        2.76338  -0.07747   0.00000  -0.03578  -0.03650   2.72687
    R5        2.01801  -0.00599   0.00000   0.00005   0.00005   2.01807
    R6        2.83586  -0.04578   0.00000  -0.06856  -0.06815   2.76771
    R7        2.01888  -0.00620   0.00000  -0.00030  -0.00030   2.01858
    R8        2.68621   0.00341   0.00000  -0.00973  -0.00941   2.67680
    R9        4.50559  -0.02135   0.00000   0.13247   0.13208   4.63767
   R10        2.67628  -0.02955   0.00000  -0.00358  -0.00312   2.67316
   R11        2.01976   0.00042   0.00000  -0.00045  -0.00045   2.01931
   R12        2.01872  -0.00044   0.00000  -0.00024  -0.00024   2.01848
   R13        2.02570   0.00468   0.00000   0.00282   0.00282   2.02852
   R14        2.64214   0.00982   0.00000  -0.00303  -0.00289   2.63925
   R15        2.70913   0.00242   0.00000   0.00236   0.00224   2.71138
   R16        2.02338   0.00524   0.00000  -0.00028  -0.00028   2.02310
   R17        2.67948   0.00084   0.00000  -0.01206  -0.01211   2.66738
   R18        2.71713   0.01118   0.00000   0.00359   0.00387   2.72101
   R19        2.73204   0.01275   0.00000   0.01105   0.01117   2.74321
   R20        2.03034   0.00939   0.00000   0.00575   0.00575   2.03609
   R21        2.03969   0.01504   0.00000   0.01106   0.01106   2.05075
    A1        2.18228   0.02318   0.00000   0.07206   0.07182   2.25410
    A2        1.97756  -0.00462   0.00000  -0.01298  -0.01238   1.96519
    A3        2.06886  -0.01401   0.00000  -0.05352  -0.05396   2.01489
    A4        1.67558   0.00211   0.00000   0.00250   0.00147   1.67705
    A5        2.28530  -0.00235   0.00000  -0.00323  -0.00274   2.28256
    A6        2.31843   0.00025   0.00000   0.00025   0.00079   2.31922
    A7        1.67062   0.00575   0.00000   0.00244   0.00241   1.67303
    A8        2.31377  -0.00269   0.00000   0.00025   0.00028   2.31404
    A9        2.29255  -0.00369   0.00000  -0.00290  -0.00290   2.28964
   A10        2.04014   0.03075   0.00000   0.10376   0.10404   2.14418
   A11        2.10431  -0.01625   0.00000  -0.02342  -0.02311   2.08120
   A12        2.06524  -0.00956   0.00000  -0.08242  -0.08276   1.98248
   A13        1.71664  -0.01173   0.00000  -0.01842  -0.01912   1.69752
   A14        2.28804   0.00574   0.00000   0.00558   0.00589   2.29393
   A15        2.27825   0.00585   0.00000   0.01309   0.01342   2.29167
   A16        1.69006  -0.00411   0.00000   0.00455   0.00338   1.69345
   A17        2.29961   0.00173   0.00000  -0.00677  -0.00618   2.29343
   A18        2.29311   0.00216   0.00000   0.00207   0.00266   2.29576
   A19        1.93596  -0.00647   0.00000  -0.06357  -0.06491   1.87105
   A20        1.72701  -0.01038   0.00000   0.06263   0.06292   1.78994
   A21        1.95991  -0.00055   0.00000  -0.02004  -0.02074   1.93917
   A22        2.05432   0.01558   0.00000   0.02487   0.02553   2.07984
   A23        1.91922   0.00062   0.00000   0.00333   0.00216   1.92138
   A24        1.86073   0.00053   0.00000  -0.00291  -0.00260   1.85814
   A25        1.58445  -0.00688   0.00000  -0.06846  -0.06868   1.51577
   A26        1.96658  -0.00872   0.00000  -0.00414  -0.00277   1.96381
   A27        1.99501   0.00048   0.00000   0.00646   0.00625   2.00126
   A28        2.08279   0.01648   0.00000   0.04389   0.04285   2.12564
   A29        1.89355  -0.00333   0.00000   0.00698   0.00662   1.90017
   A30        1.92299   0.00121   0.00000   0.00649   0.00556   1.92855
   A31        1.72503   0.01395   0.00000   0.01600   0.01555   1.74058
   A32        1.72424   0.01601   0.00000   0.01772   0.01751   1.74175
   A33        1.79946  -0.00892   0.00000  -0.00392  -0.00406   1.79540
   A34        1.96131   0.00577   0.00000   0.00144   0.00142   1.96273
   A35        1.92267  -0.00344   0.00000  -0.00145  -0.00143   1.92123
   A36        1.95750   0.00655   0.00000   0.00056   0.00057   1.95807
   A37        1.91000  -0.00531   0.00000  -0.01071  -0.01068   1.89931
   A38        1.91031   0.00429   0.00000   0.01256   0.01255   1.92286
    D1       -1.19760  -0.00265   0.00000   0.02029   0.02048  -1.17712
    D2        2.03086  -0.00284   0.00000   0.02553   0.02561   2.05647
    D3        1.58807   0.00809   0.00000   0.02469   0.02514   1.61321
    D4       -1.46666   0.00790   0.00000   0.02994   0.03026  -1.43639
    D5        1.35090  -0.00574   0.00000  -0.01013  -0.00978   1.34112
    D6       -1.76213   0.00244   0.00000  -0.00490  -0.00513  -1.76726
    D7       -1.41784  -0.01924   0.00000  -0.02396  -0.02315  -1.44098
    D8        1.75232  -0.01107   0.00000  -0.01873  -0.01849   1.73383
    D9        2.73206  -0.01337   0.00000  -0.05953  -0.05808   2.67398
   D10       -1.38102  -0.00411   0.00000  -0.02362  -0.02431  -1.40533
   D11        0.57674  -0.00895   0.00000  -0.00192  -0.00281   0.57393
   D12       -0.74030   0.00475   0.00000  -0.02812  -0.02729  -0.76759
   D13        1.42980   0.01401   0.00000   0.00779   0.00648   1.43628
   D14       -2.89563   0.00917   0.00000   0.02949   0.02798  -2.86765
   D15       -0.17956   0.00851   0.00000   0.01010   0.01021  -0.16935
   D16        2.84895   0.00279   0.00000   0.00808   0.00811   2.85706
   D17        2.87254   0.00851   0.00000   0.00442   0.00463   2.87717
   D18       -0.38214   0.00279   0.00000   0.00240   0.00254  -0.37960
   D19        1.49087  -0.00105   0.00000  -0.01061  -0.01094   1.47993
   D20       -1.24169  -0.01228   0.00000   0.01324   0.01361  -1.22808
   D21       -1.53978   0.00447   0.00000  -0.00893  -0.00920  -1.54898
   D22        2.01084  -0.00676   0.00000   0.01491   0.01535   2.02618
   D23       -1.35968   0.00601   0.00000   0.03329   0.03319  -1.32649
   D24        1.75880  -0.00005   0.00000   0.04414   0.04444   1.80324
   D25        1.38233   0.01507   0.00000   0.02298   0.02127   1.40359
   D26       -1.78238   0.00901   0.00000   0.03384   0.03252  -1.74986
   D27        1.41033   0.00180   0.00000  -0.02121  -0.02041   1.38992
   D28       -2.73551   0.01432   0.00000  -0.00772  -0.00660  -2.74211
   D29       -0.52255   0.00878   0.00000   0.00325   0.00413  -0.51842
   D30       -1.31650  -0.01874   0.00000  -0.03972  -0.03985  -1.35635
   D31        0.82084  -0.00622   0.00000  -0.02624  -0.02604   0.79480
   D32        3.03381  -0.01176   0.00000  -0.01527  -0.01531   3.01850
   D33       -0.00902   0.00168   0.00000  -0.02252  -0.02284  -0.03186
   D34        3.10417  -0.00646   0.00000  -0.02795  -0.02772   3.07645
   D35       -3.12770   0.00769   0.00000  -0.03314  -0.03392   3.12157
   D36       -0.01450  -0.00045   0.00000  -0.03857  -0.03880  -0.05331
   D37       -0.01987  -0.00156   0.00000   0.00884   0.00851  -0.01136
   D38       -2.05739   0.00824   0.00000   0.04420   0.04496  -2.01243
   D39        2.00499  -0.00425   0.00000  -0.00895  -0.00898   1.99601
   D40        2.06418  -0.00924   0.00000  -0.01393  -0.01397   2.05021
   D41        0.02667   0.00056   0.00000   0.02143   0.02248   0.04915
   D42       -2.19414  -0.01193   0.00000  -0.03171  -0.03146  -2.22560
   D43       -2.05493   0.00316   0.00000   0.00586   0.00543  -2.04950
   D44        2.19074   0.01296   0.00000   0.04121   0.04188   2.23262
   D45       -0.03007   0.00046   0.00000  -0.01193  -0.01206  -0.04213
   D46       -1.35442   0.00511   0.00000  -0.06836  -0.06848  -1.42290
   D47        2.76410   0.01344   0.00000   0.02589   0.02619   2.79029
   D48        0.51877  -0.00697   0.00000  -0.00561  -0.00576   0.51301
   D49        1.26938  -0.00297   0.00000  -0.04847  -0.04860   1.22078
   D50       -0.46905   0.00662   0.00000   0.02558   0.02589  -0.44316
   D51       -2.77849  -0.01349   0.00000  -0.04325  -0.04238  -2.82087
   D52       -0.82402   0.01963   0.00000   0.03048   0.03042  -0.79360
   D53       -2.93529   0.01431   0.00000   0.03149   0.03151  -2.90378
   D54        1.21284   0.00726   0.00000   0.01539   0.01537   1.22821
   D55        0.80433  -0.01813   0.00000  -0.03691  -0.03680   0.76753
   D56        2.91819  -0.01333   0.00000  -0.03731  -0.03730   2.88089
   D57       -1.24150  -0.00723   0.00000  -0.02847  -0.02846  -1.26995
         Item               Value     Threshold  Converged?
 Maximum Force            0.077467     0.000015     NO 
 RMS     Force            0.014046     0.000010     NO 
 Maximum Displacement     0.188586     0.000060     NO 
 RMS     Displacement     0.052277     0.000040     NO 
 Predicted change in Energy=-2.724344D-02
 GradGradGradGradGradGradGradGradGradGradGradGradGradGradGradGradGradGrad

                          Input orientation:                          
 ---------------------------------------------------------------------
 Center     Atomic      Atomic             Coordinates (Angstroms)
 Number     Number       Type             X           Y           Z
 ---------------------------------------------------------------------
      1          6           0       -0.131120    0.568204    1.119252
      2          6           0        1.341091    0.543488    1.093282
      3          6           0        1.488780    1.418138   -0.044885
      4          6           0        0.070012    1.431540   -0.408196
      5          6           0       -0.866720    2.313331    0.184635
      6          6           0       -0.994995    1.634399    1.418987
      7          1           0        2.318745    1.969391   -0.429980
      8          1           0       -1.321470    3.209816   -0.177809
      9          1           0       -1.542832    1.872196    2.304558
     10          1           0        2.039603   -0.019270    1.672789
     11          6           0       -1.022256   -1.071224   -0.034626
     12          1           0       -1.985455   -1.273972    0.393657
     13          6           0       -0.946733   -0.595820   -1.345683
     14          1           0       -1.824874   -0.385748   -1.920898
     15          8           0       -0.201539   -2.246870    0.019516
     16          8           0       -0.060403   -1.414731   -2.077926
     17          6           0        0.765700   -1.915251   -0.994275
     18          1           0        1.357111   -2.765056   -1.292543
     19          1           0        1.410144   -1.114320   -0.646584
 ---------------------------------------------------------------------
                    Distance matrix (angstroms):
                    1          2          3          4          5
     1  C    0.000000
     2  C    1.472647   0.000000
     3  C    2.168335   1.443000   0.000000
     4  C    1.766040   2.158406   1.464608   0.000000
     5  C    2.111891   2.971938   2.530302   1.416500   0.000000
     6  C    1.404596   2.598743   2.891164   2.124615   1.414577
     7  H    3.219516   2.304200   1.068186   2.312263   3.262397
     8  H    3.174494   3.976708   3.335459   2.269706   1.068573
     9  H    2.257936   3.398480   3.862218   3.186609   2.268436
    10  H    2.315938   1.067916   2.306502   3.211641   4.012772
    11  C    2.193919   3.076504   3.535863   2.756162   3.395214
    12  H    2.712685   3.854678   4.417022   3.491089   3.763509
    13  C    2.845361   3.532805   3.417576   2.454147   3.288075
    14  H    3.608509   4.469015   4.213517   3.030081   3.554766
    15  O    3.023081   3.364339   4.036534   3.713135   4.611417
    16  O    3.762842   3.981879   3.815542   3.302463   4.434837
    17  C    3.382134   3.276334   3.540574   3.468209   4.683538
    18  H    4.375182   4.079079   4.367276   4.477735   5.737377
    19  H    2.885231   2.404211   2.604144   2.886899   4.198074
                    6          7          8          9         10
     6  C    0.000000
     7  H    3.809432   0.000000
     8  H    2.266778   3.854013   0.000000
     9  H    1.068134   4.732750   2.828494   0.000000
    10  H    3.465230   2.907633   5.014830   4.100075   0.000000
    11  C    3.071502   4.534747   4.293871   3.795589   3.660171
    12  H    3.238970   5.451965   4.568566   3.707536   4.405854
    13  C    3.552408   4.252313   3.998402   4.446425   4.285065
    14  H    3.990554   4.993906   4.027388   4.799202   5.289903
    15  O    4.201468   4.932620   5.573921   4.897671   3.566263
    16  O    4.732764   4.452904   5.156274   5.675178   4.519425
    17  C    4.639384   4.221471   5.593675   5.527781   3.511524
    18  H    5.678028   4.907520   6.642027   6.546214   4.098577
    19  H    4.196038   3.222072   5.136109   5.133087   2.640994
                   11         12         13         14         15
    11  C    0.000000
    12  H    1.073446   0.000000
    13  C    1.396632   2.136384   0.000000
    14  H    2.161503   2.484330   1.070577   0.000000
    15  O    1.434800   2.066124   2.268270   3.140732   0.000000
    16  O    2.284346   3.135979   1.411516   2.048615   2.260894
    17  C    2.197747   3.147451   2.190162   3.147869   1.439894
    18  H    3.180065   4.029808   3.164823   4.022557   2.102239
    19  H    2.508569   3.554952   2.512458   3.552468   2.079395
                   16         17         18         19
    16  O    0.000000
    17  C    1.451643   0.000000
    18  H    2.109396   1.077451   0.000000
    19  H    2.074004   1.085212   1.773416   0.000000
 Symmetry turned off by external request.
 Stoichiometry    C9H8O2
 Framework group  C1[X(C9H8O2)]
 Deg. of freedom    51
 Full point group                 C1      NOp   1
 Rotational constants (GHZ):           2.1843706           0.9627549           0.9274894
 Standard basis: VSTO-6G (5D, 7F)
    52 basis functions,   312 primitive gaussians,    52 cartesian basis functions
    28 alpha electrons       28 beta electrons
       nuclear repulsion energy       335.7745163048 Hartrees.
 Integral buffers will be    131072 words long.
 Regular integral format.
 Two-electron integral symmetry is turned off.
 Do NDO integrals.
 One-electron integrals computed using PRISM.
 NBasis=    52 RedAO= F EigKep=  0.00D+00  NBF=    52
 NBsUse=    52 1.00D-04 EigRej=  0.00D+00 NBFU=    52
 Initial guess from the checkpoint file:  "C:\Users\al6323\OneDrive - Imperial College London\Desktop\TSR20251113\TS(Berny)_PM6_exo.chk"
 B after Tr=     0.008078    0.015196    0.008092
         Rot=    0.999999    0.001125   -0.000407   -0.000261 Ang=   0.14 deg.
 Keep J ints in memory in canonical form, NReq=867036.
 Overlap will be assumed to be unity.
 Requested convergence on RMS density matrix=1.00D-08 within  32 cycles.
 Requested convergence on MAX density matrix=1.00D-06.
 Requested convergence on             energy=1.00D-06.
 No special actions if energy rises.
 SCF Done:  E(RPM6) =  0.277675480483     A.U. after   18 cycles
            NFock= 17  Conv=0.87D-08     -V/T= 1.0026
 QCSCF skips out because SCF is already converged.
 Calling FoFJK, ICntrl=      2127 FMM=F ISym2X=0 I1Cent= 0 IOpClX= 0 NMat=1 NMatS=1 NMatT=0.
 -------------------------------------------------------------------
 Center     Atomic                   Forces (Hartrees/Bohr)
 Number     Number              X              Y              Z
 -------------------------------------------------------------------
      1        6           0.049954724    0.003272065   -0.051642117
      2        6          -0.024752605    0.016688237   -0.033128178
      3        6          -0.028576534   -0.039909704    0.016430399
      4        6           0.028181895   -0.008472959    0.055779088
      5        6          -0.015236822   -0.000991719   -0.001085375
      6        6          -0.020213626    0.003400281   -0.005772653
      7        1          -0.002173069   -0.005935665   -0.001838768
      8        1          -0.000867008   -0.000574689   -0.000631287
      9        1          -0.000637258   -0.001142710   -0.000632577
     10        1          -0.002560082    0.005216039    0.000798363
     11        6          -0.011734335   -0.012401317    0.004294722
     12        1           0.003415324    0.008627490    0.020852849
     13        6          -0.014280545   -0.015121635   -0.008327787
     14        1           0.005862795    0.023877021   -0.007830733
     15        8           0.006981068    0.020077315    0.014254931
     16        8           0.006056422    0.026225973    0.004963358
     17        6           0.017385084   -0.019415257   -0.004532801
     18        1          -0.005304754   -0.010972447   -0.004678156
     19        1           0.008499326    0.007553678    0.002726723
 -------------------------------------------------------------------
 Cartesian Forces:  Max     0.055779088 RMS     0.018256087

 GradGradGradGradGradGradGradGradGradGradGradGradGradGradGradGradGradGrad
 Berny optimization.
 FormGI is forming the generalized inverse of G from B-inverse, IUseBI=4.
 Internal  Forces:  Max     0.054278772 RMS     0.010779826
 Search for a saddle point.
 Step number   3 out of a maximum of  114
 All quantities printed in internal units (Hartrees-Bohrs-Radians)
 Swapping is turned off.
 Update second derivatives using D2CorX and points    2    3
 ITU=  0  0  0
     Eigenvalues ---   -0.11173  -0.01674  -0.00119   0.00127   0.00169
     Eigenvalues ---    0.00718   0.00921   0.01163   0.01387   0.01618
     Eigenvalues ---    0.01793   0.02101   0.02569   0.02858   0.02952
     Eigenvalues ---    0.03240   0.03777   0.03953   0.04664   0.05244
     Eigenvalues ---    0.06153   0.06512   0.07062   0.07759   0.08300
     Eigenvalues ---    0.08417   0.08640   0.08686   0.09015   0.12732
     Eigenvalues ---    0.15205   0.16534   0.18384   0.21964   0.23840
     Eigenvalues ---    0.25134   0.25505   0.26862   0.26956   0.27015
     Eigenvalues ---    0.27239   0.27765   0.28116   0.31076   0.31945
     Eigenvalues ---    0.32826   0.34329   0.36420   0.40511   0.55341
     Eigenvalues ---    0.59422
 Eigenvectors required to have negative eigenvalues:
                          R3        R9        R14       A1        R4
   1                   -0.67009  -0.65586   0.12374  -0.10143  -0.09565
                          R10       R8        R2        A10       R1
   1                   -0.08687   0.07987   0.07985  -0.07885   0.07827
 RFO step:  Lambda0=3.269427374D-03 Lambda=-6.87332094D-02.
 Linear search not attempted -- option 19 set.
 Maximum step size (   0.300) exceeded in Quadratic search.
    -- Step size scaled by   0.353
 Iteration  1 RMS(Cart)=  0.05480504 RMS(Int)=  0.00231649
 Iteration  2 RMS(Cart)=  0.00257422 RMS(Int)=  0.00111570
 Iteration  3 RMS(Cart)=  0.00000431 RMS(Int)=  0.00111570
 Iteration  4 RMS(Cart)=  0.00000002 RMS(Int)=  0.00111570
 Variable       Old X    -DE/DX   Delta X   Delta X   Delta X     New X
                                 (Linear)    (Quad)   (Total)
    R1        2.78290  -0.03407   0.00000  -0.05169  -0.05189   2.73101
    R2        2.65430   0.01328   0.00000   0.00388   0.00418   2.65848
    R3        4.14591  -0.02508   0.00000   0.14194   0.14189   4.28780
    R4        2.72687  -0.05428   0.00000  -0.03884  -0.04138   2.68549
    R5        2.01807  -0.00399   0.00000  -0.00045  -0.00045   2.01761
    R6        2.76771  -0.03028   0.00000  -0.04196  -0.04223   2.72548
    R7        2.01858  -0.00409   0.00000  -0.00043  -0.00043   2.01815
    R8        2.67680   0.00370   0.00000   0.00105   0.00086   2.67766
    R9        4.63767  -0.01662   0.00000  -0.12352  -0.12322   4.51445
   R10        2.67316  -0.02107   0.00000   0.00347   0.00408   2.67724
   R11        2.01931   0.00010   0.00000  -0.00272  -0.00272   2.01659
   R12        2.01848  -0.00045   0.00000  -0.00231  -0.00231   2.01617
   R13        2.02852   0.00363   0.00000  -0.00243  -0.00243   2.02609
   R14        2.63925   0.00790   0.00000  -0.00644  -0.00515   2.63410
   R15        2.71138   0.00153   0.00000  -0.01411  -0.01414   2.69724
   R16        2.02310   0.00408   0.00000   0.00185   0.00185   2.02495
   R17        2.66738   0.00059   0.00000   0.00657   0.00624   2.67362
   R18        2.72101   0.00875   0.00000   0.01143   0.01188   2.73289
   R19        2.74321   0.00995   0.00000   0.00148   0.00196   2.74517
   R20        2.03609   0.00704   0.00000   0.00488   0.00488   2.04096
   R21        2.05075   0.01150   0.00000   0.00935   0.00935   2.06011
    A1        2.25410   0.02048   0.00000   0.08097   0.08225   2.33634
    A2        1.96519  -0.00325   0.00000   0.02076   0.02047   1.98566
    A3        2.01489  -0.01346   0.00000  -0.08910  -0.09095   1.92395
    A4        1.67705   0.00045   0.00000  -0.01381  -0.01396   1.66309
    A5        2.28256  -0.00121   0.00000   0.00849   0.00864   2.29120
    A6        2.31922   0.00074   0.00000   0.00531   0.00525   2.32447
    A7        1.67303   0.00334   0.00000  -0.00816  -0.00869   1.66434
    A8        2.31404  -0.00163   0.00000   0.00287   0.00322   2.31726
    A9        2.28964  -0.00229   0.00000   0.00362   0.00383   2.29348
   A10        2.14418   0.02787   0.00000   0.08567   0.08685   2.23104
   A11        2.08120  -0.01309   0.00000  -0.01002  -0.01116   2.07004
   A12        1.98248  -0.01051   0.00000  -0.04956  -0.05198   1.93050
   A13        1.69752  -0.00925   0.00000  -0.02370  -0.02447   1.67305
   A14        2.29393   0.00449   0.00000   0.01338   0.01367   2.30760
   A15        2.29167   0.00471   0.00000   0.01011   0.01050   2.30217
   A16        1.69345  -0.00392   0.00000  -0.02266  -0.02302   1.67043
   A17        2.29343   0.00161   0.00000   0.01204   0.01219   2.30562
   A18        2.29576   0.00211   0.00000   0.01052   0.01079   2.30655
   A19        1.87105  -0.00673   0.00000   0.01144   0.01269   1.88374
   A20        1.78994  -0.00819   0.00000  -0.09434  -0.09420   1.69574
   A21        1.93917  -0.00044   0.00000   0.00309   0.00273   1.94191
   A22        2.07984   0.01317   0.00000   0.04803   0.04639   2.12624
   A23        1.92138   0.00066   0.00000   0.01047   0.00936   1.93074
   A24        1.85814   0.00059   0.00000   0.01378   0.01295   1.87109
   A25        1.51577  -0.00539   0.00000   0.06186   0.06231   1.57808
   A26        1.96381  -0.00761   0.00000  -0.05942  -0.06072   1.90309
   A27        2.00126  -0.00015   0.00000  -0.01438  -0.01505   1.98620
   A28        2.12564   0.01321   0.00000   0.02144   0.02151   2.14716
   A29        1.90017  -0.00261   0.00000  -0.00687  -0.00623   1.89394
   A30        1.92855   0.00131   0.00000   0.00432   0.00345   1.93200
   A31        1.74058   0.01099   0.00000   0.01440   0.01420   1.75478
   A32        1.74175   0.01248   0.00000   0.01493   0.01423   1.75598
   A33        1.79540  -0.00658   0.00000  -0.00089  -0.00094   1.79447
   A34        1.96273   0.00397   0.00000  -0.00226  -0.00229   1.96044
   A35        1.92123  -0.00271   0.00000  -0.01007  -0.01003   1.91120
   A36        1.95807   0.00454   0.00000   0.00039   0.00022   1.95828
   A37        1.89931  -0.00427   0.00000  -0.00276  -0.00260   1.89672
   A38        1.92286   0.00406   0.00000   0.01408   0.01408   1.93694
    D1       -1.17712  -0.00271   0.00000  -0.03883  -0.04094  -1.21805
    D2        2.05647  -0.00259   0.00000  -0.03871  -0.04016   2.01631
    D3        1.61321   0.00684   0.00000  -0.01493  -0.01537   1.59784
    D4       -1.43639   0.00695   0.00000  -0.01481  -0.01460  -1.45099
    D5        1.34112  -0.00397   0.00000   0.00671   0.00872   1.34984
[...]
 04023285,-0.00696129,-0.01779545,-0.07507949,-0.05078083,0.27223448,0.
 02696698,0.00542698,-0.03135896,-0.03122343,-0.00158269,0.02308820,-0.
 04276925,0.03846077,-0.02473004,-0.22284119,0.09413388,0.07175284,0.41
 547271,0.05470350,-0.05913673,0.04735342,0.00339691,-0.00114332,0.0064
 3114,-0.00514380,-0.00445959,-0.00205663,0.16488052,-0.13070721,-0.072
 43234,-0.24817994,0.50091322,-0.07636538,0.10305017,0.00744940,0.02103
 691,0.00935824,-0.02349566,0.02732214,-0.02704515,0.01626803,0.0065644
 6,0.00230519,-0.02565659,-0.00741030,-0.20683997,0.41583828,-0.2200027
 4,0.12913363,0.01105208,-0.03350295,0.00206088,0.02739731,-0.02205278,
 0.01583035,-0.00760065,-0.00990234,-0.01552727,0.04768477,-0.06703599,
 -0.03962800,0.07750889,0.46230475,0.10042441,-0.09193811,-0.00990977,0
 .02620640,-0.00075114,-0.02736297,0.02158224,-0.01714152,0.01848596,-0
 .04714374,0.06320242,0.02593662,0.02621494,-0.14546340,0.08532728,-0.1
 1868714,0.29454414,0.09366417,-0.09132219,-0.04640703,-0.02679003,-0.0
 0301542,0.01562431,-0.01102269,0.01818620,-0.01624241,0.10763925,-0.02
 881014,-0.08178644,-0.01217459,0.16788203,-0.27483757,-0.25471986,-0.0
 7818143,0.55905853,-0.00109165,-0.00033987,0.00111499,-0.00016321,-0.0
 0262636,0.00615997,-0.15777572,-0.03757563,0.08621269,-0.03028968,-0.0
 0169181,0.01184774,-0.00055902,-0.00106173,0.00052029,0.00005231,0.000
 45556,-0.00000315,0.18880433,0.00126535,0.00423432,0.00331199,-0.01029
 544,-0.00280548,0.01294728,-0.03631664,-0.05019508,0.02427444,0.004786
 50,0.00480956,-0.00321648,-0.00037499,0.00067560,0.00217516,-0.0010021
 2,0.00073846,-0.00011763,0.04207126,0.04106183,0.00252489,0.00282438,0
 .00169123,0.01700140,0.01055085,-0.01635079,0.08675014,0.02419442,-0.1
 0241858,0.00034196,0.00141372,0.00345277,-0.00014140,-0.00025947,0.001
 21618,-0.00049778,0.00037650,0.00012045,-0.10622489,-0.04015972,0.1123
 8496,0.00153607,0.00390803,0.00169506,0.00083977,-0.00038846,-0.000142
 38,0.00088399,0.00087284,0.00132436,-0.01602339,0.02074258,-0.00542488
 ,-0.08666082,0.07299754,-0.04175949,0.00392768,-0.00109400,0.00036598,
 -0.00001595,0.00012250,0.00011760,0.09431779,0.00231293,0.00207087,0.0
 0271881,0.00111003,-0.00009416,-0.00021093,0.00052643,-0.00062973,0.00
 169633,0.01461369,-0.01041981,0.00198186,0.07186237,-0.14976560,0.0603
 6102,0.00603640,-0.01090877,0.01347896,0.00007366,0.00020307,-0.000080
 59,-0.09711802,0.16856980,0.00055405,0.00314054,0.00172931,0.00064259,
 -0.00008343,0.00012821,-0.00013010,-0.00048291,0.00113265,0.00573697,-
 0.00397773,0.00443423,-0.04249543,0.06040539,-0.07378327,-0.00867713,0
 .02071562,-0.01301899,-0.00011035,0.00000421,0.00011653,0.04399925,-0.
 08054952,0.07957727,-0.01896732,0.00786335,0.01711312,0.00068303,0.001
 45807,0.00031464,0.00086914,-0.00033913,-0.00008959,0.00107896,0.00280
 137,0.00298491,-0.00018434,-0.00137263,0.00562003,-0.12152559,0.005094
 35,0.09668501,-0.00001411,-0.00073201,-0.00030539,0.00100934,0.0002811
 2,0.00038113,0.13685832,0.01538600,-0.00225320,-0.00894277,0.00047786,
 0.00105672,-0.00169220,0.00120635,-0.00024346,0.00039158,0.00074165,0.
 00352903,0.00184145,-0.00754612,0.00245640,0.01227025,0.00435788,-0.03
 985569,-0.00703815,0.00007623,-0.00034673,-0.00037655,0.00028864,0.000
 46267,0.00069786,-0.01523818,0.03460608,0.00645991,-0.00375658,-0.0011
 9296,0.00118747,0.00100012,-0.00084233,0.00105727,-0.00060014,0.000547
 27,0.00139564,0.00225027,0.00050992,0.01578385,0.00533182,-0.02320846,
 0.09581264,-0.00732943,-0.14740210,0.00029807,-0.00021688,-0.00022876,
 0.00040970,0.00072021,-0.00013408,-0.12259044,0.00217382,0.17096013,-0
 .02679240,0.01279033,-0.01295166,-0.11560210,0.05751847,-0.07603891,0.
 00405160,0.00093970,-0.00034871,0.00004946,0.00065274,-0.00094491,-0.0
 0010235,0.00022930,0.00061334,-0.00052480,0.00008979,-0.00152200,0.000
 51499,-0.00011587,0.00010674,0.00007112,0.00026609,-0.00006919,-0.0000
 0269,-0.00004199,0.00007664,0.13783528,0.00552015,0.00121961,0.0044082
 0,0.05833589,-0.08388830,0.05631639,0.00745061,-0.00510359,0.01272535,
 0.00285827,0.00359755,0.00296459,-0.00112645,0.00052933,0.00060572,0.0
 0017055,0.00184865,-0.00095138,-0.00011071,0.00086985,0.00088133,-0.00
 058758,-0.00045397,-0.00039800,0.00014615,0.00008996,0.00001168,-0.073
 00445,0.08054697,-0.00209069,-0.00056883,0.00316609,-0.07529383,0.0555
 2478,-0.10925584,-0.01206863,0.01587976,-0.01909375,0.00058906,0.00273
 381,0.00084833,-0.00097645,0.00021538,0.00085315,-0.00032045,0.0017842
 7,-0.00050379,0.00006906,0.00092736,-0.00007615,-0.00048073,-0.0000217
 9,-0.00018811,0.00001476,0.00006026,0.00025836,0.09021847,-0.07693002,
 0.12359341,0.00099410,0.02999029,0.01583207,-0.01868887,-0.01260319,0.
 00401547,-0.00892807,0.00168303,-0.00861181,0.00477094,0.00632433,0.00
 744192,0.00464321,-0.00004887,-0.00897625,0.00700819,-0.00882834,0.004
 00270,0.00073564,0.00075323,0.00012297,-0.00005698,0.00026923,0.000037
 93,-0.00035759,0.00012800,0.00049354,0.00040261,-0.00073479,0.00028654
 ,0.37906928,0.01982107,0.04131219,0.02786854,-0.02557372,-0.00860034,0
 .00680439,-0.00639130,0.00408404,-0.01327772,0.00078933,-0.00047360,0.
 01222612,0.00494741,-0.00135280,-0.01477139,0.01366974,-0.02834518,0.0
 0108115,-0.00023396,0.00035566,0.00056631,0.00047460,0.00004597,0.0004
 7495,-0.00007641,0.00000132,-0.00010670,0.00000250,0.00066860,-0.00005
 498,-0.10871953,0.29052375,0.03971061,0.09412597,0.04483148,-0.0426742
 0,-0.01998668,0.01931004,-0.02092045,0.01152581,-0.02857894,0.02593240
 ,0.05732493,0.03141307,0.01609823,-0.00346653,-0.03089990,0.02021890,-
 0.04258523,0.01154389,0.00048843,0.00017321,-0.00018018,-0.00008122,0.
 00027640,0.00006928,-0.00024629,0.00056718,0.00067331,0.00084957,-0.00
 000643,0.00068676,-0.20986398,-0.24051092,0.53110482,-0.00853803,-0.01
 423239,-0.00537429,0.00302494,0.00080064,-0.00119448,0.00111345,-0.000
 78987,0.00215953,-0.00181579,-0.00346411,-0.00238470,-0.00079442,0.000
 18997,0.00233279,-0.00188038,0.00190223,-0.00073366,-0.00010051,-0.000
 03717,0.00005415,0.00006781,-0.00011306,0.00003726,0.00029000,0.000056
 81,-0.00025494,-0.00015725,-0.00003728,-0.00018679,-0.12784853,-0.0114
 1900,0.10646638,0.16181257,-0.01124610,-0.01414707,-0.00578057,0.00351
 241,0.00091070,-0.00169600,0.00135906,-0.00121016,0.00259141,-0.002611
 10,-0.00385636,-0.00265345,-0.00059778,0.00008059,0.00196923,-0.002195
 51,-0.00023055,-0.00101831,0.00001824,0.00001205,0.00002763,0.00003338
 ,-0.00004909,0.00000268,-0.00004250,-0.00026061,-0.00020637,-0.0000500
 3,-0.00006161,-0.00011782,-0.01704144,-0.02368749,0.03417489,0.0110501
 2,0.04210286,-0.00263601,-0.00471912,-0.00169677,0.00208836,0.00004847
 ,-0.00070010,0.00026503,-0.00064390,0.00139935,-0.00138651,-0.00241492
 ,-0.00224566,-0.00018972,-0.00029010,0.00124613,-0.00147808,0.00082691
 ,0.00002378,0.00011870,0.00011212,0.00002622,0.00000958,0.00014194,0.0
 0002448,-0.00022537,-0.00025306,0.00015488,0.00004049,-0.00008933,0.00
 007310,0.09553921,0.02189588,-0.10871285,-0.11830309,-0.02138239,0.137
 63278,0.00949579,0.01846236,0.00742885,-0.01542490,-0.00654272,0.00448
 160,-0.01141599,0.00120137,-0.01519945,0.00354159,0.02410008,0.0158843
 1,0.00594840,-0.00079874,-0.01064515,0.00623142,-0.01050634,0.00541897
 ,0.00058604,-0.00016484,-0.00071907,-0.00031605,0.00042478,-0.00022782
 ,-0.00024228,0.00037436,0.00059116,0.00100306,-0.00004573,0.00090944,-
 0.05602611,-0.01693149,-0.01843079,0.00161870,-0.00697055,0.01866781,0
 .34975634,0.02007445,0.04965941,0.01496816,-0.02104370,-0.01646396,0.0
 1673122,-0.02753927,0.00959269,-0.02404408,0.02478846,0.05754725,0.031
 69740,0.02122735,-0.01118898,-0.02938324,0.00678137,-0.02684404,0.0123
 7361,0.00026687,0.00057034,0.00057986,0.00017642,0.00032047,0.00043002
 ,0.00066672,0.00056030,-0.00002956,-0.00000838,0.00080322,0.00015473,-
 0.03103582,-0.12185776,0.09061634,0.00099902,0.00480395,0.00763530,-0.
 21463944,0.28978324,-0.02139018,-0.04411368,-0.04119266,0.01475120,0.0
 0345833,-0.00697858,0.00407873,-0.00428033,0.01018487,-0.00875391,-0.0
 1770887,-0.01396605,-0.00358620,-0.00210956,0.01002157,-0.00907641,0.0
 1184672,-0.00409080,-0.00054806,0.00002003,0.00056218,0.00010664,-0.00
 044153,0.00006975,0.00061542,0.00013656,-0.00045937,-0.00053975,0.0007
 9249,-0.00039635,0.04467751,0.18161823,-0.32311781,0.00154327,0.003646
 02,-0.02814685,-0.00677266,-0.20204132,0.62069089,-0.00202176,-0.00439
 675,-0.00218949,0.00166509,0.00111805,-0.00127520,0.00165784,-0.000837
 05,0.00145102,-0.00507210,-0.00786188,-0.00575648,-0.00146342,0.000048
 58,0.00143011,-0.00072083,0.00219291,-0.00086621,-0.00012665,-0.000123
 70,0.00000874,0.00016764,-0.00013493,0.00014217,0.00008984,-0.00004009
 ,-0.00011338,-0.00009623,0.00000091,-0.00009627,0.00379190,0.00146341,
 0.00194163,0.00059138,0.00018703,0.00009739,-0.08905618,0.07433905,-0.
 06371806,0.11496033,-0.00224993,-0.00445751,-0.00057703,0.00032329,0.0
 0134679,-0.00154055,0.00233291,-0.00109756,0.00056369,-0.00437002,-0.0
 0673113,-0.00336985,-0.00244541,-0.00023096,-0.00010470,0.00080279,0.0
 0148582,-0.00117507,0.00003739,-0.00008118,-0.00012719,-0.00024074,-0.
 00012723,-0.00033557,-0.00010231,0.00004096,0.00014265,0.00018250,-0.0
 0007877,0.00010602,0.00616751,-0.00784102,0.01565940,0.00023848,0.0006
 2051,0.00102398,0.06757640,-0.08496358,0.06542856,-0.09118738,0.112906
 50,-0.00141890,-0.00237742,-0.00186800,0.00153368,0.00063909,-0.000877
 58,0.00089711,-0.00057250,0.00142873,-0.00521475,-0.00593036,-0.004793
 11,-0.00069380,-0.00103042,0.00045315,-0.00066284,0.00137383,-0.000313
 03,-0.00009894,-0.00009712,0.00006790,0.00008159,-0.00020537,0.0001130
 8,0.00006933,-0.00008795,-0.00014616,-0.00009755,-0.00002650,-0.000119
 24,-0.01246506,0.01924646,-0.01415262,0.00011337,0.00023326,-0.0005246
 6,-0.06234241,0.07281330,-0.09451650,0.06997927,-0.07689274,0.11041096
 ,0.00233756,0.00161538,0.00170501,-0.00193416,0.00000591,-0.00054228,0
 .00181452,0.00004775,-0.00084924,0.00084963,-0.00162397,0.00111904,-0.
 00212124,0.00094712,0.00008172,0.00214046,0.00052576,-0.00072421,-0.00
 052205,-0.00018772,0.00020679,0.00009764,-0.00041755,-0.00002765,0.000
 02418,-0.00008231,-0.00011351,-0.00024488,0.00097408,-0.00001900,-0.12
 410824,0.09451396,-0.01063979,-0.02668314,0.02117666,0.00755785,-0.018
 76463,0.04345277,-0.02047610,0.00206715,-0.00014840,0.00048481,0.27118
 574,0.00137787,-0.01349073,-0.00623466,0.00219625,-0.00173908,-0.00139
 277,-0.00090577,0.00000277,0.00200967,-0.00126625,-0.00149163,-0.00270
 190,0.00169257,-0.00139809,0.00174013,-0.00378092,0.00032077,-0.000123
 37,0.00050118,0.00019746,-0.00012726,-0.00010124,0.00072551,0.00005242
 ,-0.00015810,-0.00002659,0.00023981,0.00030494,-0.00026273,0.00029305,
 0.10589166,-0.14461147,0.03987920,0.01032493,-0.00405166,-0.00601258,0
 .03436761,-0.04838935,0.03334362,-0.00080031,0.00317430,0.00221778,-0.
 15225553,0.26809932,0.00049706,-0.00647182,-0.00134800,0.00130662,-0.0
 0010309,-0.00072918,0.00056562,0.00001782,0.00140995,-0.00114148,-0.00
 177205,-0.00095333,0.00016204,-0.00027066,0.00111076,-0.00150439,0.000
 34990,-0.00045845,0.00018427,-0.00006012,-0.00018572,-0.00001317,0.000
 25704,0.00000859,0.00010626,0.00007147,-0.00005940,0.00005302,0.000319
 83,-0.00009627,-0.00762343,0.03832013,-0.05206001,0.01757302,-0.016136
 58,0.00194010,-0.01270845,0.03115075,-0.02754321,0.00251083,0.00140241
 ,-0.00234867,-0.09234461,-0.09176268,0.31923595,-0.00144249,-0.0044080
 4,-0.00666118,0.00619611,-0.00106613,-0.00028113,-0.00180786,-0.000360
 11,0.00321684,0.00010396,-0.00016948,-0.00348083,0.00257492,-0.0009296
 9,0.00302104,-0.00511740,0.00257579,0.00071430,-0.00044897,0.00051886,
 0.00091982,0.00023956,-0.00016584,0.00026169,0.00054737,-0.00018948,-0
 .00066934,-0.00086104,0.00058153,-0.00063082,-0.02360646,0.01694781,0.
 06131337,0.00136290,-0.00042382,-0.00053040,-0.15080751,0.06515966,0.0
 8258631,-0.02408704,0.02045994,0.00670171,0.01926910,-0.01083002,-0.01
 028715,0.27796038,-0.00072018,-0.00048013,0.00220527,-0.00197557,0.002
 58009,-0.00074468,0.00235573,-0.00185883,-0.00081493,0.00084197,-0.007
 35237,-0.00284444,-0.00306824,0.00052534,-0.00142554,0.00341491,-0.000
 79899,-0.00173239,0.00032910,-0.00004303,-0.00028515,-0.00019930,0.000
 17314,-0.00021115,-0.00050655,0.00025127,0.00074228,0.00066922,-0.0005
 1907,0.00048945,0.01069342,-0.00431616,-0.01348632,0.00139574,0.001966
 19,0.00285011,0.06877541,-0.06261808,-0.02861114,0.02397027,-0.0149312
 5,-0.00893107,-0.01783627,-0.00029590,0.04181456,-0.16145482,0.2249211
 1,0.00043517,0.00070148,0.00249793,-0.00223310,0.00068258,-0.00013636,
 0.00085594,-0.00098741,-0.00143254,0.00110667,-0.00392985,0.00006764,-
 0.00168947,0.00045380,-0.00136369,0.00252865,-0.00106201,-0.00087225,0
 .00027421,-0.00002679,-0.00039993,-0.00021764,0.00015794,-0.00026162,-
 0.00029831,0.00015473,0.00039956,0.00035350,0.00001906,0.00028855,0.04
 007543,-0.00441618,-0.06578686,-0.00141690,0.00387669,-0.00082696,0.09
 335707,-0.03480024,-0.12834571,-0.00712178,0.00116097,0.00972342,0.007
 70502,0.02670924,-0.05530542,-0.08714679,-0.06178674,0.36004084,0.0006
 8551,0.00132837,0.00152714,-0.00071604,0.00001780,0.00019245,-0.000150
 65,-0.00002614,-0.00044733,0.00041390,0.00112464,0.00060020,0.00030342
 ,-0.00022262,-0.00089732,0.00055476,-0.00100785,0.00016005,0.00025732,
 -0.00016190,-0.00020938,-0.00008024,0.00012594,-0.00004792,-0.00013483
 ,0.00002218,0.00012012,0.00028931,-0.00035096,-0.00001203,-0.04002185,
 0.01695400,0.02742990,-0.00170376,0.00349686,0.00029024,-0.03444198,0.
 03451893,-0.01255518,-0.00204476,0.00242852,0.00301060,-0.09630663,0.0
 0608843,0.07444957,-0.07917862,0.04979813,-0.03189063,0.46558686,0.000
 52665,-0.00120995,-0.00142420,0.00144708,-0.00145381,-0.00065677,-0.00
 070256,-0.00056036,0.00055195,-0.00001613,-0.00002076,-0.00079813,0.00
 103527,-0.00037597,0.00046307,-0.00150812,0.00014151,0.00046517,-0.000
 16425,-0.00004838,0.00001679,0.00007593,-0.00002293,0.00008683,0.00021
 760,-0.00004328,-0.00028530,-0.00040842,0.00026705,-0.00027881,0.01691
 351,0.00635034,-0.02509018,0.00310092,-0.00326629,0.00132162,0.0415289
 9,-0.03913577,-0.00549905,0.00137367,0.00132714,-0.00002663,0.00892049
 ,-0.06112252,0.01187294,0.04189035,-0.10451279,0.06304194,-0.04063610,
 0.43299510,0.00004463,0.00079237,0.00153531,-0.00206547,0.00079871,-0.
 00034401,0.00136431,-0.00093180,-0.00130031,0.00074901,-0.00004821,0.0
 0120480,-0.00153316,0.00070183,-0.00126127,0.00250561,-0.00062197,-0.0
 0047904,-0.00026583,-0.00004046,0.00013913,-0.00000697,-0.00024349,-0.
 00003318,-0.00019998,0.00002873,0.00023244,0.00017925,-0.00049203,0.00
 013335,0.03464186,-0.04144003,-0.01044775,-0.00114054,0.00337894,0.000
 28626,-0.02059118,0.00995909,0.03387890,0.00416765,-0.00180883,-0.0031
 6535,0.06471284,0.02315047,-0.15554467,-0.02071833,0.05068778,-0.12058
 641,-0.01607060,0.04115372,0.36508208,-0.00007603,-0.00018991,-0.00017
 929,0.00002141,-0.00018168,-0.00006938,-0.00003024,-0.00004885,-0.0000
 5575,0.00004225,-0.00018653,-0.00005379,-0.00011110,0.00003991,0.00017
 914,-0.00006849,0.00022919,-0.00005537,-0.00000286,0.00003887,-0.00000
 003,0.00000376,0.00000339,-0.00000259,0.00000494,0.00000132,0.00000663
 ,-0.00001427,0.00003098,0.00004291,-0.00018972,0.00019450,0.00217178,-
 0.00008085,0.00030092,0.00000106,-0.00022535,0.00134286,-0.00082928,-0
 .00012618,0.00013359,0.00018850,-0.00224313,0.01386917,0.01425382,0.00
 006974,0.01627369,0.00102029,-0.03642722,-0.01999035,-0.00986966,0.041
 83041,-0.00012903,-0.00009665,-0.00011877,0.00011636,0.00003409,0.0000
 1739,0.00004984,0.00006190,0.00009237,0.00003576,0.00002514,-0.0000474
 8,0.00000171,0.00002469,0.00000178,-0.00001504,0.00008074,0.00004762,-
 0.00005381,-0.00005461,0.00001131,0.00002470,-0.00007027,0.00001635,0.
 00003656,-0.00002160,-0.00006334,-0.00005412,0.00000090,-0.00006509,0.
 00081538,-0.00114314,0.00146377,0.00010003,0.00032148,-0.00007286,-0.0
 0066034,-0.00264539,0.00066537,0.00025916,-0.00025286,-0.00001655,0.00
 326090,-0.00064078,-0.01245170,0.01075369,-0.03146823,0.00250359,-0.01
 435550,-0.17366767,-0.06845130,0.00585183,0.21708383,0.00010848,-0.000
 07797,-0.00007965,0.00018494,0.00011079,0.00001550,-0.00001316,-0.0000
 5471,0.00006542,-0.00020666,0.00002822,-0.00009381,0.00015192,0.000003
 74,0.00005524,-0.00016759,-0.00005042,0.00007172,-0.00003222,0.0000012
 7,0.00002683,0.00001410,-0.00001944,0.00001463,0.00003103,-0.00001197,
 -0.00004477,-0.00002474,-0.00002263,-0.00003995,-0.00139514,-0.0002465
 0,-0.00416885,0.00016271,-0.00045611,-0.00018161,0.00207780,0.00260112
 ,-0.00293191,-0.00016032,0.00038817,0.00040716,0.01428928,-0.02247066,
 -0.02133205,-0.00667743,0.01372842,0.00757457,-0.00723444,-0.06909304,
 -0.06847001,0.00241024,0.08392657,0.08646325,0.00009047,0.00019775,0.0
 0022439,-0.00026654,0.00023441,0.00013156,-0.00000592,0.00012759,-0.00
 003932,-0.00002436,0.00003282,0.00015567,-0.00004598,-0.00004975,-0.00
 017420,0.00011129,-0.00022402,-0.00004265,0.00015942,-0.00004314,-0.00
 005727,-0.00001001,0.00004292,-0.00000630,-0.00002741,0.00001971,0.000
 04903,0.00017975,-0.00007181,0.00004536,-0.00158475,-0.00043788,0.0002
 2919,-0.00027834,0.00004521,0.00007368,-0.00146166,0.00046663,-0.00011
 147,-0.00017580,0.00006146,-0.00006523,-0.02685899,-0.00651356,0.01396
 307,-0.02096598,0.00724694,-0.01569730,-0.17688368,-0.05360569,-0.0359
 0393,-0.00237821,-0.00603775,-0.00351828,0.23042694,0.00010241,0.00011
 416,0.00021352,-0.00018834,-0.00011874,-0.00026355,0.00005787,-0.00023
 411,-0.00007271,-0.00011435,0.00006674,0.00011518,-0.00008148,0.000015
 69,-0.00005042,0.00007631,-0.00007866,-0.00003211,0.00002876,-0.000154
 77,-0.00002838,0.00001102,-0.00002955,0.00001164,0.00000128,-0.0000053
 6,-0.00001990,0.00003662,-0.00007593,-0.00013376,-0.00061415,-0.001106
 79,-0.00064246,-0.00006787,0.00000183,0.00001948,0.00045436,0.00046560
 ,0.00384121,0.00042990,-0.00010733,-0.00032901,-0.00288896,0.00499800,
 0.00345176,0.02110426,-0.00122054,0.00755219,-0.05914268,-0.05564091,-
 0.01657258,-0.01771338,-0.00757093,-0.00828550,0.05850786,0.06068121,-
 0.00020416,-0.00000720,-0.00002689,0.00005480,-0.00020297,-0.00010451,
 -0.00009248,-0.00009282,0.00003289,0.00015281,-0.00002476,-0.00000156,
 -0.00006463,-0.00002401,0.00000268,-0.00001026,0.00008810,-0.00003524,
 -0.00000424,-0.00001154,0.00003582,0.00000142,-0.00001779,0.00000139,0
 .00002008,0.00000819,-0.00001757,0.00004599,-0.00012924,-0.00013301,0.
 00176934,0.00473023,-0.00151719,0.00054716,-0.00045528,0.00022783,-0.0
 0117339,-0.00140331,-0.00372482,-0.00043351,0.00005409,0.00022079,0.02
 787341,0.00118663,-0.00574234,-0.02165280,0.00835447,-0.00527158,-0.03
 841439,-0.01581806,-0.04086447,-0.00915970,-0.00745980,0.00264922,0.04
 074407,0.01122493,0.05426876||-0.00000068,-0.00000029,0.00000077,-0.00
 000020,-0.00000051,0.00000040,0.00000038,0.00000082,-0.00000121,0.0000
 0052,0.00000009,0.00000011,0.00000026,-0.00000013,-0.00000056,-0.00000
 024,0.00000020,0.00000043,-0.00000002,0.00000002,-0.00000014,-0.000000
 03,0.00000003,0.00000007,0.00000002,-0.00000008,0.00000003,-0.00000008
 ,0.,0.00000008,0.00000003,0.00000009,0.00000003,0.00000001,0.00000006,
 0.00000003,-0.00000010,-0.00000037,-0.00000004,0.00000016,0.00000004,-
 0.00000011,0.00000029,-0.00000047,-0.00000007,0.00000012,0.00000027,0.
 00000011,-0.00000049,0.00000023,0.00000010,0.00000009,-0.00000003,0.00
 000001,-0.00000004,0.00000003,-0.00000004|||@
 The archive entry for this job was punched.


 EXPERIENCE IS THE FRUIT OF THE TREE OF ERRORS.
 Job cpu time:       0 days  0 hours  0 minutes 28.0 seconds.
 Elapsed time:       0 days  0 hours  0 minutes 26.6 seconds.
 File lengths (MBytes):  RWF=     26 Int=      0 D2E=      0 Chk=      2 Scr=      1
 Normal termination of Gaussian 16 at Thu Nov 13 12:46:28 2025.
