 Default is to use a total of   8 processors:
                                8 via shared-memory
                                1 via Linda
 Entering Link 1 = C:\G16W\l1.exe PID=     13296.
  
 Copyright (c) 1988-2019, Gaussian, Inc.  All Rights Reserved.
  
 This is part of the Gaussian(R) 16 program.  It is based on
 the Gaussian(R) 09 system (copyright 2009, Gaussian, Inc.),
 the Gaussian(R) 03 system (copyright 2003, Gaussian, Inc.),
 the Gaussian(R) 98 system (copyright 1998, Gaussian, Inc.),
 the Gaussian(R) 94 system (copyright 1995, Gaussian, Inc.),
 the Gaussian 92(TM) system (copyright 1992, Gaussian, Inc.),
 the Gaussian 90(TM) system (copyright 1990, Gaussian, Inc.),
 the Gaussian 88(TM) system (copyright 1988, Gaussian, Inc.),
 the Gaussian 86(TM) system (copyright 1986, Carnegie Mellon
 University), and the Gaussian 82(TM) system (copyright 1983,
 Carnegie Mellon University). Gaussian is a federally registered
 trademark of Gaussian, Inc.
  
 This software contains proprietary and confidential information,
 including trade secrets, belonging to Gaussian, Inc.
  
 This software is provided under written license and may be
 used, copied, transmitted, or stored only in accord with that
 written license.
  
 The following legend is applicable only to US Government
 contracts under FAR:
  
                    RESTRICTED RIGHTS LEGEND
  
 Use, reproduction and disclosure by the US Government is
 subject to restrictions as set forth in subparagraphs (a)
 and (c) of the Commercial Computer Software - Restricted
 Rights clause in FAR 52.227-19.
  
 Gaussian, Inc.
 340 Quinnipiac St., Bldg. 40, Wallingford CT 06492
  
  
 ---------------------------------------------------------------
 Warning -- This program may not be used in any manner that
 competes with the business of Gaussian, Inc. or will provide
 assistance to any competitor of Gaussian, Inc.  The licensee
 of this program is prohibited from giving any competitor of
 Gaussian, Inc. access to this program.  By using this program,
 the user acknowledges that Gaussian, Inc. is engaged in the
 business of creating and licensing software in the field of
 computational chemistry and represents and warrants to the
 licensee that it is not a competitor of Gaussian, Inc. and that
 it will not use this program in any manner prohibited above.
 ---------------------------------------------------------------
  

 Cite this work as:
 Gaussian 16, Revision C.01,
 M. J. Frisch, G. W. Trucks, H. B. Schlegel, G. E. Scuseria, 
 M. A. Robb, J. R. Cheeseman, G. Scalmani, V. Barone, 
 G. A. Petersson, H. Nakatsuji, X. Li, M. Caricato, A. V. Marenich, 
 J. Bloino, B. G. Janesko, R. Gomperts, B. Mennucci, H. P. Hratchian, 
 J. V. Ortiz, A. F. Izmaylov, J. L. Sonnenberg, D. Williams-Young, 
 F. Ding, F. Lipparini, F. Egidi, J. Goings, B. Peng, A. Petrone, 
 T. Henderson, D. Ranasinghe, V. G. Zakrzewski, J. Gao, N. Rega, 
 G. Zheng, W. Liang, M. Hada, M. Ehara, K. Toyota, R. Fukuda, 
 J. Hasegawa, M. Ishida, T. Nakajima, Y. Honda, O. Kitao, H. Nakai, 
 T. Vreven, K. Throssell, J. A. Montgomery, Jr., J. E. Peralta, 
 F. Ogliaro, M. J. Bearpark, J. J. Heyd, E. N. Brothers, K. N. Kudin, 
 V. N. Staroverov, T. A. Keith, R. Kobayashi, J. Normand, 
 K. Raghavachari, A. P. Rendell, J. C. Burant, S. S. Iyengar, 
 J. Tomasi, M. Cossi, J. M. Millam, M. Klene, C. Adamo, R. Cammi, 
 J. W. Ochterski, R. L. Martin, K. Morokuma, O. Farkas, 
 J. B. Foresman, and D. J. Fox, Gaussian, Inc., Wallingford CT, 2019.
 
 ******************************************
 Gaussian 16:  EM64W-G16RevC.01 30-May-2019
                15-Nov-2025 
 ******************************************
 %chk=C:\Users\al6323\OneDrive - Imperial College London\Desktop\TSR20251115\Exer
 cise 2\TS_Berny_PM6_exo.chk
 Default route: MaxDisk=10GB
 ----------------------------------------------------------------------
 # opt=(calcfc,tight,ts,maxcycles=200,maxstep=4,noeigen) freq pm6 nosym
 m geom=connectivity scf=(xqc,tight)
 ----------------------------------------------------------------------
 1/5=1,6=200,7=10,8=4,10=4,11=1,18=20,26=1,38=1,57=2/1,3;
 2/9=110,12=2,15=1,17=6,18=5,40=1/2;
 3/5=2,25=1,41=3900000,71=2,140=1/1,2,3;
 4/35=1/1;
 5/5=2,8=3,13=1,32=2,35=1,38=5/2,8;
 8/6=4,10=90,11=11/1;
 11/6=1,8=1,9=11,15=111,16=1,31=1/1,2,10;
 10/6=1,13=1,31=1/2;
 6/7=2,8=2,9=2,10=2,28=1/1;
 7/10=1,25=1,30=1/1,2,3,16;
 1/5=1,6=200,7=10,8=4,10=4,11=1,18=20,26=1/3(2);
 2/9=110,15=1/2;
 99//99;
 2/9=110,15=1/2;
 3/5=2,25=1,41=3900000,71=1,135=20/1,2,3;
 4/5=5,16=3,35=1/1;
 5/5=2,8=3,13=1,32=2,35=1,38=5/2,8;
 7/30=1/1,2,3,16;
 1/5=1,6=200,7=10,8=4,11=1,18=20,26=1/3(-5);
 2/9=110,15=1/2;
 6/7=2,8=2,9=2,10=2,19=2,28=1/1;
 99/9=1/99;
 -------------------
 Title Card Required
 -------------------
 Symbolic Z-matrix:
 Charge =  0 Multiplicity = 1
 C                    -0.80806   0.71966   0.50992 
 C                     0.70615   0.55442   0.69391 
 C                     0.97725   1.48481  -0.54275 
 C                    -0.53054   1.67208  -0.75604 
 C                    -1.27601   2.72955   0.03738 
 C                    -1.50972   1.92746   1.10352 
 H                     1.51484   2.40795  -0.3038 
 H                    -1.48596   3.73767  -0.22473 
 H                    -1.9844    2.0271    2.04895 
 H                     1.08798   0.94301   1.64338 
 C                    -1.99166  -0.62095  -0.77144 
 C                    -1.71774   0.31905  -2.02089 
 O                    -0.63171  -0.0889   -2.56091 
 O                    -1.03362  -1.46815  -0.72761 
 C                    -0.19876  -1.29413  -1.8932 
 H                    -0.41014  -2.13316  -2.57077 
 H                     0.84836  -1.18356  -1.58047 
 H                    -2.54445   0.7536   -2.58961 
 H                    -3.01241  -0.85238  -0.45491 
 H                     1.05512  -0.47771   0.57697 
 H                     1.48458   0.99622  -1.38218 
 

 GradGradGradGradGradGradGradGradGradGradGradGradGradGradGradGradGradGrad
 Berny optimization.
 Initialization pass.
                           ----------------------------
                           !    Initial Parameters    !
                           ! (Angstroms and Degrees)  !
 --------------------------                            --------------------------
 ! Name  Definition              Value          Derivative Info.                !
 --------------------------------------------------------------------------------
 ! R1    R(1,2)                  1.5343         calculate D2E/DX2 analytically  !
 ! R2    R(1,6)                  1.5177         calculate D2E/DX2 analytically  !
 ! R3    R(1,11)                 2.2            calculate D2E/DX2 analytically  !
 ! R4    R(2,3)                  1.5711         calculate D2E/DX2 analytically  !
 ! R5    R(2,10)                 1.0947         calculate D2E/DX2 analytically  !
 ! R6    R(2,20)                 1.0958         calculate D2E/DX2 analytically  !
 ! R7    R(3,4)                  1.5343         calculate D2E/DX2 analytically  !
 ! R8    R(3,7)                  1.0947         calculate D2E/DX2 analytically  !
 ! R9    R(3,21)                 1.0958         calculate D2E/DX2 analytically  !
 ! R10   R(4,5)                  1.5177         calculate D2E/DX2 analytically  !
 ! R11   R(4,12)                 2.2            calculate D2E/DX2 analytically  !
 ! R12   R(5,6)                  1.3545         calculate D2E/DX2 analytically  !
 ! R13   R(5,8)                  1.0626         calculate D2E/DX2 analytically  !
 ! R14   R(6,9)                  1.0626         calculate D2E/DX2 analytically  !
 ! R15   R(11,12)                1.5874         calculate D2E/DX2 analytically  !
 ! R16   R(11,14)                1.2797         calculate D2E/DX2 analytically  !
 ! R17   R(11,19)                1.0935         calculate D2E/DX2 analytically  !
 ! R18   R(12,13)                1.2796         calculate D2E/DX2 analytically  !
 ! R19   R(12,18)                1.0935         calculate D2E/DX2 analytically  !
 ! R20   R(13,15)                1.4443         calculate D2E/DX2 analytically  !
 ! R21   R(14,15)                1.4443         calculate D2E/DX2 analytically  !
 ! R22   R(15,16)                1.099          calculate D2E/DX2 analytically  !
 ! R23   R(15,17)                1.0984         calculate D2E/DX2 analytically  !
 ! A1    A(2,1,6)              119.6748         calculate D2E/DX2 analytically  !
 ! A2    A(2,1,11)             122.3561         calculate D2E/DX2 analytically  !
 ! A3    A(6,1,11)             117.6458         calculate D2E/DX2 analytically  !
 ! A4    A(1,2,3)               90.6948         calculate D2E/DX2 analytically  !
 ! A5    A(1,2,10)             114.2067         calculate D2E/DX2 analytically  !
 ! A6    A(1,2,20)             113.7623         calculate D2E/DX2 analytically  !
 ! A7    A(3,2,10)             114.3499         calculate D2E/DX2 analytically  !
 ! A8    A(3,2,20)             114.7609         calculate D2E/DX2 analytically  !
 ! A9    A(10,2,20)            108.4119         calculate D2E/DX2 analytically  !
 ! A10   A(2,3,4)               90.6951         calculate D2E/DX2 analytically  !
 ! A11   A(2,3,7)              114.3504         calculate D2E/DX2 analytically  !
 ! A12   A(2,3,21)             114.7602         calculate D2E/DX2 analytically  !
 ! A13   A(4,3,7)              114.207          calculate D2E/DX2 analytically  !
 ! A14   A(4,3,21)             113.7611         calculate D2E/DX2 analytically  !
 ! A15   A(7,3,21)             108.4125         calculate D2E/DX2 analytically  !
 ! A16   A(3,4,5)              119.6745         calculate D2E/DX2 analytically  !
 ! A17   A(3,4,12)             122.3559         calculate D2E/DX2 analytically  !
 ! A18   A(5,4,12)             117.6462         calculate D2E/DX2 analytically  !
 ! A19   A(4,5,6)               94.7975         calculate D2E/DX2 analytically  !
 ! A20   A(4,5,8)              128.9862         calculate D2E/DX2 analytically  !
 ! A21   A(6,5,8)              136.2106         calculate D2E/DX2 analytically  !
 ! A22   A(1,6,5)               94.7973         calculate D2E/DX2 analytically  !
 ! A23   A(1,6,9)              128.9868         calculate D2E/DX2 analytically  !
 ! A24   A(5,6,9)              136.2103         calculate D2E/DX2 analytically  !
 ! A25   A(1,11,12)             90.2728         calculate D2E/DX2 analytically  !
 ! A26   A(1,11,14)             88.8942         calculate D2E/DX2 analytically  !
 ! A27   A(1,11,19)            117.5544         calculate D2E/DX2 analytically  !
 ! A28   A(12,11,14)           106.8474         calculate D2E/DX2 analytically  !
 ! A29   A(12,11,19)           120.9481         calculate D2E/DX2 analytically  !
 ! A30   A(14,11,19)           123.2876         calculate D2E/DX2 analytically  !
 ! A31   A(4,12,11)             90.2733         calculate D2E/DX2 analytically  !
 ! A32   A(4,12,13)             88.8943         calculate D2E/DX2 analytically  !
 ! A33   A(4,12,18)            117.5547         calculate D2E/DX2 analytically  !
 ! A34   A(11,12,13)           106.848          calculate D2E/DX2 analytically  !
 ! A35   A(11,12,18)           120.947          calculate D2E/DX2 analytically  !
 ! A36   A(13,12,18)           123.2877         calculate D2E/DX2 analytically  !
 ! A37   A(12,13,15)           108.987          calculate D2E/DX2 analytically  !
 ! A38   A(11,14,15)           108.9873         calculate D2E/DX2 analytically  !
 ! A39   A(13,15,14)           107.4805         calculate D2E/DX2 analytically  !
 ! A40   A(13,15,16)           107.122          calculate D2E/DX2 analytically  !
 ! A41   A(13,15,17)           109.4755         calculate D2E/DX2 analytically  !
 ! A42   A(14,15,16)           107.1224         calculate D2E/DX2 analytically  !
 ! A43   A(14,15,17)           109.4763         calculate D2E/DX2 analytically  !
 ! A44   A(16,15,17)           115.8333         calculate D2E/DX2 analytically  !
 ! D1    D(6,1,2,3)            -84.078          calculate D2E/DX2 analytically  !
 ! D2    D(6,1,2,10)            33.1505         calculate D2E/DX2 analytically  !
 ! D3    D(6,1,2,20)           158.3411         calculate D2E/DX2 analytically  !
 ! D4    D(11,1,2,3)            89.2371         calculate D2E/DX2 analytically  !
 ! D5    D(11,1,2,10)         -153.5343         calculate D2E/DX2 analytically  !
 ! D6    D(11,1,2,20)          -28.3438         calculate D2E/DX2 analytically  !
 ! D7    D(2,1,6,5)             86.4555         calculate D2E/DX2 analytically  !
 ! D8    D(2,1,6,9)            -92.784          calculate D2E/DX2 analytically  !
 ! D9    D(11,1,6,5)           -87.171          calculate D2E/DX2 analytically  !
 ! D10   D(11,1,6,9)            93.5894         calculate D2E/DX2 analytically  !
 ! D11   D(2,1,11,12)          -89.0041         calculate D2E/DX2 analytically  !
 ! D12   D(2,1,11,14)           17.8412         calculate D2E/DX2 analytically  !
 ! D13   D(2,1,11,19)          145.366          calculate D2E/DX2 analytically  !
 ! D14   D(6,1,11,12)           84.4397         calculate D2E/DX2 analytically  !
 ! D15   D(6,1,11,14)         -168.715          calculate D2E/DX2 analytically  !
 ! D16   D(6,1,11,19)          -41.1901         calculate D2E/DX2 analytically  !
 ! D17   D(1,2,3,4)             -0.0003         calculate D2E/DX2 analytically  !
 ! D18   D(1,2,3,7)            117.1031         calculate D2E/DX2 analytically  !
 ! D19   D(1,2,3,21)          -116.7019         calculate D2E/DX2 analytically  !
 ! D20   D(10,2,3,4)          -117.1029         calculate D2E/DX2 analytically  !
 ! D21   D(10,2,3,7)             0.0004         calculate D2E/DX2 analytically  !
 ! D22   D(10,2,3,21)          126.1955         calculate D2E/DX2 analytically  !
 ! D23   D(20,2,3,4)           116.7027         calculate D2E/DX2 analytically  !
 ! D24   D(20,2,3,7)          -126.194          calculate D2E/DX2 analytically  !
 ! D25   D(20,2,3,21)            0.0011         calculate D2E/DX2 analytically  !
 ! D26   D(2,3,4,5)             84.0779         calculate D2E/DX2 analytically  !
 ! D27   D(2,3,4,12)           -89.2357         calculate D2E/DX2 analytically  !
 ! D28   D(7,3,4,5)            -33.1515         calculate D2E/DX2 analytically  !
 ! D29   D(7,3,4,12)           153.5349         calculate D2E/DX2 analytically  !
 ! D30   D(21,3,4,5)          -158.3421         calculate D2E/DX2 analytically  !
 ! D31   D(21,3,4,12)           28.3443         calculate D2E/DX2 analytically  !
 ! D32   D(3,4,5,6)            -86.4547         calculate D2E/DX2 analytically  !
 ! D33   D(3,4,5,8)             92.7842         calculate D2E/DX2 analytically  !
 ! D34   D(12,4,5,6)            87.1704         calculate D2E/DX2 analytically  !
 ! D35   D(12,4,5,8)           -93.5907         calculate D2E/DX2 analytically  !
 ! D36   D(3,4,12,11)           89.0044         calculate D2E/DX2 analytically  !
 ! D37   D(3,4,12,13)          -17.8414         calculate D2E/DX2 analytically  !
 ! D38   D(3,4,12,18)         -145.3665         calculate D2E/DX2 analytically  !
 ! D39   D(5,4,12,11)          -84.4379         calculate D2E/DX2 analytically  !
 ! D40   D(5,4,12,13)          168.7162         calculate D2E/DX2 analytically  !
 ! D41   D(5,4,12,18)           41.1911         calculate D2E/DX2 analytically  !
 ! D42   D(4,5,6,1)              0.0            calculate D2E/DX2 analytically  !
 ! D43   D(4,5,6,9)            179.1458         calculate D2E/DX2 analytically  !
 ! D44   D(8,5,6,1)           -179.1451         calculate D2E/DX2 analytically  !
 ! D45   D(8,5,6,9)              0.0008         calculate D2E/DX2 analytically  !
 ! D46   D(1,11,12,4)           -0.0005         calculate D2E/DX2 analytically  !
 ! D47   D(1,11,12,13)          88.927          calculate D2E/DX2 analytically  !
 ! D48   D(1,11,12,18)        -122.8371         calculate D2E/DX2 analytically  !
 ! D49   D(14,11,12,4)         -88.9277         calculate D2E/DX2 analytically  !
 ! D50   D(14,11,12,13)         -0.0002         calculate D2E/DX2 analytically  !
 ! D51   D(14,11,12,18)        148.2356         calculate D2E/DX2 analytically  !
 ! D52   D(19,11,12,4)         122.8359         calculate D2E/DX2 analytically  !
 ! D53   D(19,11,12,13)       -148.2366         calculate D2E/DX2 analytically  !
 ! D54   D(19,11,12,18)         -0.0008         calculate D2E/DX2 analytically  !
 ! D55   D(1,11,14,15)         -95.5795         calculate D2E/DX2 analytically  !
 ! D56   D(12,11,14,15)         -5.6292         calculate D2E/DX2 analytically  !
 ! D57   D(19,11,14,15)        141.6812         calculate D2E/DX2 analytically  !
 ! D58   D(4,12,13,15)          95.5803         calculate D2E/DX2 analytically  !
 ! D59   D(11,12,13,15)          5.6296         calculate D2E/DX2 analytically  !
 ! D60   D(18,12,13,15)       -141.6799         calculate D2E/DX2 analytically  !
 ! D61   D(12,13,15,14)         -9.1336         calculate D2E/DX2 analytically  !
 ! D62   D(12,13,15,16)        105.701          calculate D2E/DX2 analytically  !
 ! D63   D(12,13,15,17)       -127.959          calculate D2E/DX2 analytically  !
 ! D64   D(11,14,15,13)          9.1334         calculate D2E/DX2 analytically  !
 ! D65   D(11,14,15,16)       -105.7008         calculate D2E/DX2 analytically  !
 ! D66   D(11,14,15,17)        127.9584         calculate D2E/DX2 analytically  !
 --------------------------------------------------------------------------------
 Trust Radius=4.00D-02 FncErr=1.00D-07 GrdErr=1.00D-07 EigMax=2.50D+02 EigMin=1.00D-04
 Number of steps in this run=    126 maximum allowed number of steps=    126.
 Search for a saddle point of order  1.
 GradGradGradGradGradGradGradGradGradGradGradGradGradGradGradGradGradGrad

                          Input orientation:                          
 ---------------------------------------------------------------------
 Center     Atomic      Atomic             Coordinates (Angstroms)
 Number     Number       Type             X           Y           Z
 ---------------------------------------------------------------------
      1          6           0       -0.808060    0.719661    0.509918
      2          6           0        0.706154    0.554419    0.693907
      3          6           0        0.977251    1.484808   -0.542749
      4          6           0       -0.530543    1.672084   -0.756038
      5          6           0       -1.276012    2.729550    0.037378
      6          6           0       -1.509724    1.927457    1.103515
      7          1           0        1.514843    2.407947   -0.303802
      8          1           0       -1.485963    3.737669   -0.224729
      9          1           0       -1.984396    2.027102    2.048947
     10          1           0        1.087983    0.943014    1.643376
     11          6           0       -1.991657   -0.620946   -0.771437
     12          6           0       -1.717744    0.319052   -2.020893
     13          8           0       -0.631713   -0.088898   -2.560910
     14          8           0       -1.033619   -1.468150   -0.727606
     15          6           0       -0.198759   -1.294132   -1.893196
     16          1           0       -0.410135   -2.133159   -2.570767
     17          1           0        0.848360   -1.183559   -1.580466
     18          1           0       -2.544445    0.753597   -2.589606
     19          1           0       -3.012414   -0.852376   -0.454906
     20          1           0        1.055116   -0.477706    0.576972
     21          1           0        1.484581    0.996225   -1.382177
 ---------------------------------------------------------------------
                    Distance matrix (angstroms):
                    1          2          3          4          5
     1  C    0.000000
     2  C    1.534275   0.000000
     3  C    2.209275   1.571125   0.000000
     4  C    1.608344   2.209283   1.534277   0.000000
     5  C    2.117057   3.015163   2.638773   1.517718   0.000000
     6  C    1.517716   2.638774   3.015157   2.117062   1.354483
     7  H    2.984682   2.254987   1.094663   2.220274   2.829965
     8  H    3.179250   3.972700   3.353199   2.337040   1.062583
     9  H    2.337045   3.353205   3.972697   3.179256   2.245362
    10  H    2.220268   1.094664   2.254982   2.984687   3.370373
    11  C    2.200000   3.287385   3.647041   2.719021   3.520249
    12  C    2.719011   3.647029   3.287384   2.200000   3.200330
    13  O    3.180386   3.577371   3.022960   2.523659   3.887142
    14  O    2.523660   3.022961   3.577391   3.180402   4.273715
    15  C    3.193989   3.305921   3.305936   3.194001   4.591036
    16  H    4.217528   4.373474   4.373486   4.217536   5.585526
    17  H    3.276535   2.865932   2.865947   3.276546   4.737383
    18  H    3.552920   4.624665   4.138434   2.874264   3.523402
    19  H    2.874259   4.138429   4.624670   3.552923   4.010939
    20  H    2.215764   1.095779   2.260818   2.985436   4.001476
    21  H    2.985417   2.260811   1.095781   2.215753   3.555338
                    6          7          8          9         10
     6  C    0.000000
     7  H    3.370373   0.000000
     8  H    2.245365   3.283176   0.000000
     9  H    1.062583   4.233809   2.888612   0.000000
    10  H    2.829958   2.473810   4.233805   3.283176   0.000000
    11  C    3.200323   4.657082   4.421780   3.868691   4.214436
    12  C    3.520251   4.214440   3.868704   4.421780   4.657070
    13  O    4.273711   3.992052   4.564000   5.249570   4.658135
    14  O    3.887136   4.658153   5.249576   4.563990   3.992049
    15  C    4.591029   4.378127   5.455245   5.455235   4.378113
    16  H    5.585522   5.428289   6.413105   6.413098   5.428278
    17  H    4.737377   3.869495   5.612983   5.612975   3.869482
    18  H    4.010953   4.943642   3.951925   4.842689   5.581088
    19  H    3.523383   5.581093   4.842680   3.951897   4.943629
    20  H    3.555344   3.051902   4.986902   4.204689   1.776723
    21  H    4.001465   1.776730   4.204680   4.986895   3.051900
                   11         12         13         14         15
    11  C    0.000000
    12  C    1.587376   0.000000
    13  O    2.309705   1.279650   0.000000
    14  O    1.279654   2.309699   2.329135   0.000000
    15  C    2.219461   2.219455   1.444258   1.444255   0.000000
    16  H    2.832947   2.832938   2.056258   2.056262   1.098976
    17  H    3.006121   3.006111   2.085707   2.085715   1.098402
    18  H    2.345353   1.093480   2.090255   3.268914   3.190677
    19  H    1.093480   2.345364   3.268928   2.090257   3.190687
    20  H    3.334899   3.882329   3.583695   2.654376   2.887990
    21  H    3.882328   3.334877   2.654356   3.583704   2.887994
                   16         17         18         19         20
    16  H    0.000000
    17  H    1.861786   0.000000
    18  H    3.590125   4.035104   0.000000
    19  H    3.590143   4.035115   2.712027   0.000000
    20  H    3.846524   2.279367   4.949764   4.213070   0.000000
    21  H    3.846523   2.279376   4.213052   4.949760   2.489011
                   21
    21  H    0.000000
 Symmetry turned off by external request.
 Stoichiometry    C9H10O2
 Framework group  C1[X(C9H10O2)]
 Deg. of freedom    57
 Full point group                 C1      NOp   1
 Rotational constants (GHZ):           2.0209656           1.0785516           1.0298697
 Standard basis: VSTO-6G (5D, 7F)
    54 basis functions,   324 primitive gaussians,    54 cartesian basis functions
    29 alpha electrons       29 beta electrons
       nuclear repulsion energy       361.6867728691 Hartrees.
 Integral buffers will be    131072 words long.
 Regular integral format.
 Two-electron integral symmetry is turned off.
 Do NDO integrals.
 One-electron integrals computed using PRISM.
 NBasis=    54 RedAO= F EigKep=  0.00D+00  NBF=    54
 NBsUse=    54 1.00D-04 EigRej=  0.00D+00 NBFU=    54
 Simple Huckel Guess.
 Keep J ints in memory in canonical form, NReq=867381.
 Overlap will be assumed to be unity.
 Requested convergence on RMS density matrix=1.00D-08 within  32 cycles.
 Requested convergence on MAX density matrix=1.00D-06.
 Requested convergence on             energy=1.00D-06.
 No special actions if energy rises.
 SCF Done:  E(RPM6) =  0.226726454683     A.U. after   17 cycles
            NFock= 16  Conv=0.85D-08     -V/T= 1.0021
 QCSCF skips out because SCF is already converged.
 Range of M.O.s used for correlation:     1    54
 NBasis=    54 NAE=    29 NBE=    29 NFC=     0 NFV=     0
 NROrb=     54 NOA=    29 NOB=    29 NVA=    25 NVB=    25
 Symmetrizing basis deriv contribution to polar:
 IMax=3 JMax=2 DiffMx= 0.00D+00
 G2DrvN: will do    22 centers at a time, making    1 passes.
 Calling FoFCou, ICntrl=  3107 FMM=F I1Cent=   0 AccDes= 0.00D+00.
 End of G2Drv F.D. properties file   721 does not exist.
 End of G2Drv F.D. properties file   722 does not exist.
 End of G2Drv F.D. properties file   788 does not exist.
          IDoAtm=111111111111111111111
          Differentiating once with respect to nuclear coordinates.
          Electric field/nuclear overlap derivatives assumed to be zero.
 Keep J ints in memory in canonical form, NReq=869523.
          There are    66 degrees of freedom in the 1st order CPHF.  IDoFFX=5 NUNeed=    66.
 LinEq1:  Iter=  0 NonCon=    63 RMS=1.26D-02 Max=9.52D-02 NDo=    63
 AX will form    66 AO Fock derivatives at one time.
 LinEq1:  Iter=  1 NonCon=    63 RMS=2.04D-03 Max=3.08D-02 NDo=    66
 LinEq1:  Iter=  2 NonCon=    63 RMS=6.14D-04 Max=1.12D-02 NDo=    66
 LinEq1:  Iter=  3 NonCon=    63 RMS=2.04D-04 Max=2.58D-03 NDo=    66
 LinEq1:  Iter=  4 NonCon=    63 RMS=4.24D-05 Max=4.64D-04 NDo=    66
 LinEq1:  Iter=  5 NonCon=    63 RMS=1.08D-05 Max=1.15D-04 NDo=    66
 LinEq1:  Iter=  6 NonCon=    63 RMS=2.49D-06 Max=3.26D-05 NDo=    66
 LinEq1:  Iter=  7 NonCon=    63 RMS=6.43D-07 Max=7.29D-06 NDo=    66
 LinEq1:  Iter=  8 NonCon=    58 RMS=1.65D-07 Max=1.63D-06 NDo=    66
 LinEq1:  Iter=  9 NonCon=    24 RMS=2.78D-08 Max=2.64D-07 NDo=    66
 LinEq1:  Iter= 10 NonCon=     0 RMS=4.40D-09 Max=4.23D-08 NDo=    24
 Linear equations converged to 1.000D-08 1.000D-07 after    10 iterations.
 End of Minotr F.D. properties file   721 does not exist.
 End of Minotr F.D. properties file   722 does not exist.
 End of Minotr F.D. properties file   788 does not exist.

 **********************************************************************

            Population analysis using the SCF Density.

 **********************************************************************

 Alpha  occ. eigenvalues --   -1.23777  -1.13794  -1.10907  -0.98051  -0.95819
 Alpha  occ. eigenvalues --   -0.87095  -0.83558  -0.81164  -0.74518  -0.72786
 Alpha  occ. eigenvalues --   -0.67662  -0.65558  -0.60320  -0.58933  -0.56747
 Alpha  occ. eigenvalues --   -0.54936  -0.54926  -0.52144  -0.51761  -0.50373
 Alpha  occ. eigenvalues --   -0.48901  -0.45914  -0.44997  -0.44251  -0.40225
 Alpha  occ. eigenvalues --   -0.40203  -0.35031  -0.29156  -0.28822
 Alpha virt. eigenvalues --   -0.00459   0.01235   0.04812   0.06331   0.06718
 Alpha virt. eigenvalues --    0.11347   0.13360   0.13365   0.14891   0.15861
 Alpha virt. eigenvalues --    0.16400   0.16848   0.16983   0.17381   0.17998
 Alpha virt. eigenvalues --    0.19260   0.19690   0.20929   0.21312   0.22413
 Alpha virt. eigenvalues --    0.23328   0.24036   0.24097   0.24259   0.24796
          Condensed to atoms (all electrons):
               1          2          3          4          5          6
     1  C    4.050183   0.000000   0.000000   0.000000   0.000000   0.000000
     2  C    0.000000   4.273575   0.000000   0.000000   0.000000   0.000000
     3  C    0.000000   0.000000   4.273572   0.000000   0.000000   0.000000
     4  C    0.000000   0.000000   0.000000   4.050193   0.000000   0.000000
     5  C    0.000000   0.000000   0.000000   0.000000   4.190176   0.000000
     6  C    0.000000   0.000000   0.000000   0.000000   0.000000   4.190181
     7  H    0.000000   0.000000   0.000000   0.000000   0.000000   0.000000
     8  H    0.000000   0.000000   0.000000   0.000000   0.000000   0.000000
     9  H    0.000000   0.000000   0.000000   0.000000   0.000000   0.000000
    10  H    0.000000   0.000000   0.000000   0.000000   0.000000   0.000000
    11  C    0.000000   0.000000   0.000000   0.000000   0.000000   0.000000
    12  C    0.000000   0.000000   0.000000   0.000000   0.000000   0.000000
    13  O    0.000000   0.000000   0.000000   0.000000   0.000000   0.000000
    14  O    0.000000   0.000000   0.000000   0.000000   0.000000   0.000000
    15  C    0.000000   0.000000   0.000000   0.000000   0.000000   0.000000
    16  H    0.000000   0.000000   0.000000   0.000000   0.000000   0.000000
    17  H    0.000000   0.000000   0.000000   0.000000   0.000000   0.000000
    18  H    0.000000   0.000000   0.000000   0.000000   0.000000   0.000000
    19  H    0.000000   0.000000   0.000000   0.000000   0.000000   0.000000
    20  H    0.000000   0.000000   0.000000   0.000000   0.000000   0.000000
    21  H    0.000000   0.000000   0.000000   0.000000   0.000000   0.000000
               7          8          9         10         11         12
     1  C    0.000000   0.000000   0.000000   0.000000   0.000000   0.000000
     2  C    0.000000   0.000000   0.000000   0.000000   0.000000   0.000000
     3  C    0.000000   0.000000   0.000000   0.000000   0.000000   0.000000
     4  C    0.000000   0.000000   0.000000   0.000000   0.000000   0.000000
     5  C    0.000000   0.000000   0.000000   0.000000   0.000000   0.000000
     6  C    0.000000   0.000000   0.000000   0.000000   0.000000   0.000000
     7  H    0.860875   0.000000   0.000000   0.000000   0.000000   0.000000
     8  H    0.000000   0.850351   0.000000   0.000000   0.000000   0.000000
     9  H    0.000000   0.000000   0.850351   0.000000   0.000000   0.000000
    10  H    0.000000   0.000000   0.000000   0.860875   0.000000   0.000000
    11  C    0.000000   0.000000   0.000000   0.000000   3.951329   0.000000
    12  C    0.000000   0.000000   0.000000   0.000000   0.000000   3.951320
    13  O    0.000000   0.000000   0.000000   0.000000   0.000000   0.000000
    14  O    0.000000   0.000000   0.000000   0.000000   0.000000   0.000000
    15  C    0.000000   0.000000   0.000000   0.000000   0.000000   0.000000
    16  H    0.000000   0.000000   0.000000   0.000000   0.000000   0.000000
    17  H    0.000000   0.000000   0.000000   0.000000   0.000000   0.000000
    18  H    0.000000   0.000000   0.000000   0.000000   0.000000   0.000000
    19  H    0.000000   0.000000   0.000000   0.000000   0.000000   0.000000
    20  H    0.000000   0.000000   0.000000   0.000000   0.000000   0.000000
    21  H    0.000000   0.000000   0.000000   0.000000   0.000000   0.000000
              13         14         15         16         17         18
     1  C    0.000000   0.000000   0.000000   0.000000   0.000000   0.000000
     2  C    0.000000   0.000000   0.000000   0.000000   0.000000   0.000000
     3  C    0.000000   0.000000   0.000000   0.000000   0.000000   0.000000
     4  C    0.000000   0.000000   0.000000   0.000000   0.000000   0.000000
     5  C    0.000000   0.000000   0.000000   0.000000   0.000000   0.000000
     6  C    0.000000   0.000000   0.000000   0.000000   0.000000   0.000000
     7  H    0.000000   0.000000   0.000000   0.000000   0.000000   0.000000
     8  H    0.000000   0.000000   0.000000   0.000000   0.000000   0.000000
     9  H    0.000000   0.000000   0.000000   0.000000   0.000000   0.000000
    10  H    0.000000   0.000000   0.000000   0.000000   0.000000   0.000000
    11  C    0.000000   0.000000   0.000000   0.000000   0.000000   0.000000
    12  C    0.000000   0.000000   0.000000   0.000000   0.000000   0.000000
    13  O    6.364876   0.000000   0.000000   0.000000   0.000000   0.000000
    14  O    0.000000   6.364878   0.000000   0.000000   0.000000   0.000000
    15  C    0.000000   0.000000   3.807382   0.000000   0.000000   0.000000
    16  H    0.000000   0.000000   0.000000   0.876485   0.000000   0.000000
    17  H    0.000000   0.000000   0.000000   0.000000   0.849031   0.000000
    18  H    0.000000   0.000000   0.000000   0.000000   0.000000   0.832999
    19  H    0.000000   0.000000   0.000000   0.000000   0.000000   0.000000
    20  H    0.000000   0.000000   0.000000   0.000000   0.000000   0.000000
    21  H    0.000000   0.000000   0.000000   0.000000   0.000000   0.000000
              19         20         21
     1  C    0.000000   0.000000   0.000000
     2  C    0.000000   0.000000   0.000000
     3  C    0.000000   0.000000   0.000000
     4  C    0.000000   0.000000   0.000000
     5  C    0.000000   0.000000   0.000000
     6  C    0.000000   0.000000   0.000000
     7  H    0.000000   0.000000   0.000000
     8  H    0.000000   0.000000   0.000000
     9  H    0.000000   0.000000   0.000000
    10  H    0.000000   0.000000   0.000000
    11  C    0.000000   0.000000   0.000000
    12  C    0.000000   0.000000   0.000000
    13  O    0.000000   0.000000   0.000000
    14  O    0.000000   0.000000   0.000000
    15  C    0.000000   0.000000   0.000000
    16  H    0.000000   0.000000   0.000000
    17  H    0.000000   0.000000   0.000000
    18  H    0.000000   0.000000   0.000000
    19  H    0.832998   0.000000   0.000000
    20  H    0.000000   0.859186   0.000000
    21  H    0.000000   0.000000   0.859186
 Mulliken charges:
               1
     1  C   -0.050183
     2  C   -0.273575
     3  C   -0.273572
     4  C   -0.050193
     5  C   -0.190176
     6  C   -0.190181
     7  H    0.139125
     8  H    0.149649
     9  H    0.149649
    10  H    0.139125
    11  C    0.048671
    12  C    0.048680
    13  O   -0.364876
    14  O   -0.364878
    15  C    0.192618
    16  H    0.123515
    17  H    0.150969
    18  H    0.167001
    19  H    0.167002
    20  H    0.140814
    21  H    0.140814
 Sum of Mulliken charges =   0.00000
 Mulliken charges with hydrogens summed into heavy atoms:
               1
     1  C   -0.050183
     2  C    0.006365
     3  C    0.006368
     4  C   -0.050193
     5  C   -0.040528
     6  C   -0.040532
    11  C    0.215674
    12  C    0.215681
    13  O   -0.364876
    14  O   -0.364878
    15  C    0.467102
 APT charges:
               1
     1  C   -0.050183
     2  C   -0.273575
     3  C   -0.273572
     4  C   -0.050193
     5  C   -0.190176
     6  C   -0.190181
     7  H    0.139125
     8  H    0.149649
     9  H    0.149649
    10  H    0.139125
    11  C    0.048671
    12  C    0.048680
    13  O   -0.364876
    14  O   -0.364878
    15  C    0.192618
    16  H    0.123515
    17  H    0.150969
    18  H    0.167001
    19  H    0.167002
    20  H    0.140814
    21  H    0.140814
 Sum of APT charges =   0.00000
 APT charges with hydrogens summed into heavy atoms:
               1
     1  C   -0.050183
     2  C    0.006365
     3  C    0.006368
     4  C   -0.050193
     5  C   -0.040528
     6  C   -0.040532
    11  C    0.215674
    12  C    0.215681
    13  O   -0.364876
    14  O   -0.364878
    15  C    0.467102
 Charge=              0.0000 electrons
 Dipole moment (field-independent basis, Debye):
    X=             -0.1090    Y=             -1.3496    Z=             -1.0392  Tot=              1.7068
 N-N= 3.616867728691D+02 E-N=-5.776471813251D+02  KE=-1.078263209518D+02
  Exact polarizability:       0.000       0.000       0.000       0.000       0.000       0.000
 Approx polarizability:      60.229      13.548      88.881       8.764      19.623      83.429
 Calling FoFJK, ICntrl=    100127 FMM=F ISym2X=0 I1Cent= 0 IOpClX= 0 NMat=1 NMatS=1 NMatT=0.
 -------------------------------------------------------------------
 Center     Atomic                   Forces (Hartrees/Bohr)
 Number     Number              X              Y              Z
 -------------------------------------------------------------------
      1        6          -0.029516833    0.017429283   -0.038014243
      2        6          -0.015504759   -0.008339318   -0.002619066
      3        6          -0.013589208   -0.001765818   -0.011362782
      4        6          -0.041645966   -0.024201283    0.017323359
      5        6           0.008868231   -0.010793725   -0.023350342
      6        6           0.004202443   -0.026802549   -0.002071233
      7        1          -0.000305972    0.000304513   -0.000847252
      8        1          -0.000946709   -0.000752442    0.000574542
      9        1          -0.000579960    0.000503879   -0.001095759
     10        1          -0.000580144   -0.000636479    0.000403634
     11        6          -0.028414745    0.128200870    0.010347734
     12        6          -0.050118272    0.053744829    0.109318421
     13        8           0.064362433   -0.034206526   -0.056538390
     14        8           0.052160052   -0.076075090   -0.000884718
     15        6           0.020836590   -0.020490834   -0.010849213
     16        1           0.002347145   -0.002780503   -0.001576754
     17        1          -0.001694175    0.001909921    0.001066517
     18        1           0.015136060    0.002050395    0.004755535
     19        1           0.015107676    0.001952281    0.004884557
     20        1           0.000140589    0.001070731   -0.000658711
     21        1          -0.000264476   -0.000322135    0.001194164
 -------------------------------------------------------------------
 Cartesian Forces:  Max     0.128200870 RMS     0.031011808
 FormGI is forming the generalized inverse of G from B-inverse, IUseBI=4.

 GradGradGradGradGradGradGradGradGradGradGradGradGradGradGradGradGradGrad
 Berny optimization.
 Internal  Forces:  Max     0.101802066 RMS     0.016435183
 Search for a saddle point.
 Step number   1 out of a maximum of  126
 All quantities printed in internal units (Hartrees-Bohrs-Radians)
 Swapping is turned off.
 Second derivative matrix not updated -- analytic derivatives used.
 ITU=  0
     Eigenvalues ---   -0.06005  -0.02078   0.00194   0.00457   0.00586
     Eigenvalues ---    0.00779   0.00997   0.01621   0.01812   0.01923
     Eigenvalues ---    0.02678   0.03026   0.03153   0.03293   0.03403
     Eigenvalues ---    0.03551   0.03584   0.04601   0.04616   0.05403
     Eigenvalues ---    0.05427   0.05531   0.05905   0.06208   0.06566
     Eigenvalues ---    0.07157   0.07675   0.07834   0.08432   0.08828
     Eigenvalues ---    0.08979   0.11698   0.11869   0.13634   0.14415
     Eigenvalues ---    0.18233   0.21387   0.22601   0.23077   0.24386
     Eigenvalues ---    0.25101   0.25181   0.25202   0.25443   0.25649
     Eigenvalues ---    0.25761   0.27278   0.27442   0.28608   0.28857
     Eigenvalues ---    0.29434   0.29673   0.35085   0.37921   0.52567
     Eigenvalues ---    0.65765   0.69665
 Eigenvectors required to have negative eigenvalues:
                          R3        R11       R15       A26       A32
   1                   -0.64153  -0.64148   0.17180   0.12785   0.12784
                          D47       D49       D51       D53       D60
   1                    0.12738  -0.12738  -0.10624   0.10623   0.10565
 RFO step:  Lambda0=5.536292378D-02 Lambda=-7.75800619D-02.
 Linear search not attempted -- option 19 set.
 Maximum step size (   0.040) exceeded in Quadratic search.
    -- Step size scaled by   0.048
 Iteration  1 RMS(Cart)=  0.00286940 RMS(Int)=  0.00001073
 Iteration  2 RMS(Cart)=  0.00001135 RMS(Int)=  0.00000522
 Iteration  3 RMS(Cart)=  0.00000000 RMS(Int)=  0.00000522
 Variable       Old X    -DE/DX   Delta X   Delta X   Delta X     New X
                                 (Linear)    (Quad)   (Total)
    R1        2.89936  -0.01536   0.00000  -0.00301  -0.00301   2.89635
    R2        2.86807  -0.02410   0.00000  -0.00766  -0.00766   2.86041
    R3        4.15740  -0.05833   0.00000   0.02070   0.02070   4.17809
    R4        2.96900  -0.01044   0.00000   0.00176   0.00176   2.97076
    R5        2.06862  -0.00008   0.00000   0.00005   0.00005   2.06866
    R6        2.07072  -0.00089   0.00000   0.00005   0.00005   2.07078
    R7        2.89936  -0.01536   0.00000  -0.00276  -0.00276   2.89661
    R8        2.06861  -0.00008   0.00000   0.00005   0.00005   2.06866
    R9        2.07073  -0.00089   0.00000   0.00006   0.00006   2.07078
   R10        2.86807  -0.02410   0.00000  -0.00746  -0.00746   2.86061
   R11        4.15740  -0.05833   0.00000   0.01586   0.01586   4.17326
   R12        2.55960  -0.00305   0.00000   0.00342   0.00343   2.56303
   R13        2.00799  -0.00067   0.00000   0.00006   0.00006   2.00805
   R14        2.00799  -0.00067   0.00000   0.00007   0.00007   2.00806
   R15        2.99971  -0.04012   0.00000  -0.01858  -0.01859   2.98112
   R16        2.41820   0.10180   0.00000   0.00722   0.00722   2.42541
   R17        2.06638  -0.01310   0.00000  -0.00193  -0.00193   2.06445
   R18        2.41819   0.10180   0.00000   0.00763   0.00763   2.42582
   R19        2.06638  -0.01310   0.00000  -0.00188  -0.00188   2.06450
   R20        2.72925   0.01648   0.00000   0.00131   0.00131   2.73056
   R21        2.72925   0.01648   0.00000   0.00155   0.00155   2.73080
   R22        2.07676   0.00264   0.00000   0.00008   0.00008   2.07685
   R23        2.07568  -0.00112   0.00000  -0.00035  -0.00035   2.07533
    A1        2.08872   0.01489   0.00000   0.00666   0.00666   2.09538
    A2        2.13552  -0.00980   0.00000  -0.00351  -0.00351   2.13201
    A3        2.05331  -0.00441   0.00000  -0.00325  -0.00325   2.05006
    A4        1.58292  -0.00345   0.00000  -0.00092  -0.00091   1.58201
    A5        1.99328   0.00060   0.00000   0.00083   0.00083   1.99411
    A6        1.98553   0.00145   0.00000   0.00048   0.00048   1.98600
    A7        1.99578   0.00298   0.00000   0.00106   0.00106   1.99684
    A8        2.00296  -0.00117   0.00000  -0.00138  -0.00139   2.00157
    A9        1.89215  -0.00058   0.00000  -0.00011  -0.00011   1.89204
   A10        1.58293  -0.00345   0.00000  -0.00070  -0.00070   1.58223
   A11        1.99579   0.00298   0.00000   0.00088   0.00088   1.99667
   A12        2.00294  -0.00117   0.00000  -0.00126  -0.00126   2.00168
   A13        1.99329   0.00060   0.00000   0.00082   0.00082   1.99411
   A14        1.98551   0.00145   0.00000   0.00031   0.00031   1.98582
   A15        1.89216  -0.00058   0.00000  -0.00008  -0.00008   1.89207
   A16        2.08871   0.01489   0.00000   0.00636   0.00636   2.09507
   A17        2.13551  -0.00980   0.00000  -0.00343  -0.00343   2.13209
   A18        2.05331  -0.00441   0.00000  -0.00290  -0.00290   2.05041
   A19        1.65453  -0.00415   0.00000  -0.00090  -0.00089   1.65364
   A20        2.25123   0.00292   0.00000   0.00238   0.00238   2.25361
   A21        2.37732   0.00125   0.00000  -0.00147  -0.00147   2.37585
   A22        1.65452  -0.00415   0.00000  -0.00092  -0.00091   1.65361
   A23        2.25124   0.00292   0.00000   0.00244   0.00244   2.25368
   A24        2.37732   0.00125   0.00000  -0.00151  -0.00151   2.37581
   A25        1.57556   0.00119   0.00000   0.00104   0.00103   1.57659
   A26        1.55150   0.01937   0.00000  -0.00187  -0.00188   1.54962
   A27        2.05171  -0.01267   0.00000  -0.00512  -0.00512   2.04659
   A28        1.86484  -0.00190   0.00000   0.00317   0.00317   1.86801
   A29        2.11094   0.00526   0.00000   0.00402   0.00403   2.11497
   A30        2.15178  -0.00669   0.00000  -0.00298  -0.00301   2.14877
   A31        1.57557   0.00119   0.00000   0.00267   0.00266   1.57823
   A32        1.55150   0.01936   0.00000  -0.00151  -0.00152   1.54998
   A33        2.05172  -0.01267   0.00000  -0.00546  -0.00547   2.04625
   A34        1.86485  -0.00190   0.00000   0.00295   0.00295   1.86780
   A35        2.11092   0.00526   0.00000   0.00353   0.00353   2.11446
   A36        2.15178  -0.00669   0.00000  -0.00313  -0.00315   2.14863
   A37        1.90218   0.00715   0.00000  -0.00224  -0.00224   1.89994
   A38        1.90219   0.00715   0.00000  -0.00233  -0.00232   1.89986
   A39        1.87589  -0.01022   0.00000  -0.00149  -0.00149   1.87440
   A40        1.86963   0.00284   0.00000   0.00077   0.00077   1.87040
   A41        1.91071   0.00199   0.00000  -0.00015  -0.00015   1.91056
   A42        1.86964   0.00284   0.00000   0.00063   0.00063   1.87027
   A43        1.91072   0.00199   0.00000  -0.00019  -0.00019   1.91053
   A44        2.02167  -0.00038   0.00000   0.00030   0.00030   2.02197
    D1       -1.46744  -0.00571   0.00000  -0.00105  -0.00105  -1.46849
    D2        0.57859  -0.00397   0.00000  -0.00012  -0.00012   0.57846
    D3        2.76357  -0.00301   0.00000   0.00084   0.00084   2.76442
    D4        1.55748   0.00098   0.00000  -0.00224  -0.00224   1.55524
    D5       -2.67968   0.00272   0.00000  -0.00131  -0.00131  -2.68099
    D6       -0.49469   0.00368   0.00000  -0.00035  -0.00035  -0.49504
    D7        1.50893   0.00461   0.00000   0.00085   0.00085   1.50978
    D8       -1.61939   0.00324   0.00000  -0.00044  -0.00044  -1.61983
    D9       -1.52142  -0.00133   0.00000   0.00204   0.00204  -1.51938
   D10        1.63344  -0.00270   0.00000   0.00075   0.00075   1.63419
   D11       -1.55342  -0.00349   0.00000   0.00062   0.00061  -1.55280
   D12        0.31139  -0.00543   0.00000   0.00377   0.00376   0.31515
   D13        2.53712  -0.00570   0.00000  -0.00290  -0.00289   2.53422
   D14        1.47375   0.00431   0.00000   0.00008   0.00008   1.47383
   D15       -2.94463   0.00237   0.00000   0.00324   0.00323  -2.94140
   D16       -0.71890   0.00210   0.00000  -0.00344  -0.00343  -0.72233
   D17        0.00000   0.00000   0.00000  -0.00019  -0.00019  -0.00019
   D18        2.04383  -0.00036   0.00000   0.00059   0.00059   2.04442
   D19       -2.03683   0.00046   0.00000   0.00014   0.00013  -2.03670
   D20       -2.04383   0.00036   0.00000  -0.00091  -0.00091  -2.04474
   D21        0.00001   0.00000   0.00000  -0.00013  -0.00013  -0.00013
   D22        2.20253   0.00082   0.00000  -0.00059  -0.00059   2.20194
   D23        2.03685  -0.00046   0.00000  -0.00047  -0.00047   2.03638
   D24       -2.20250  -0.00082   0.00000   0.00031   0.00031  -2.20219
   D25        0.00002   0.00000   0.00000  -0.00014  -0.00014  -0.00013
   D26        1.46744   0.00571   0.00000   0.00104   0.00104   1.46848
   D27       -1.55746  -0.00098   0.00000   0.00097   0.00097  -1.55649
   D28       -0.57860   0.00397   0.00000   0.00021   0.00021  -0.57840
   D29        2.67969  -0.00272   0.00000   0.00014   0.00014   2.67983
   D30       -2.76359   0.00301   0.00000  -0.00065  -0.00065  -2.76424
   D31        0.49470  -0.00368   0.00000  -0.00072  -0.00072   0.49398
   D32       -1.50892  -0.00461   0.00000  -0.00052  -0.00052  -1.50944
   D33        1.61939  -0.00324   0.00000   0.00061   0.00062   1.62001
   D34        1.52141   0.00133   0.00000  -0.00052  -0.00052   1.52089
   D35       -1.63347   0.00270   0.00000   0.00061   0.00061  -1.63285
   D36        1.55342   0.00349   0.00000   0.00030   0.00030   1.55372
   D37       -0.31139   0.00543   0.00000  -0.00260  -0.00260  -0.31399
   D38       -2.53712   0.00570   0.00000   0.00414   0.00413  -2.53299
   D39       -1.47372  -0.00431   0.00000  -0.00036  -0.00036  -1.47408
   D40        2.94465  -0.00237   0.00000  -0.00326  -0.00326   2.94140
   D41        0.71892  -0.00210   0.00000   0.00348   0.00347   0.72239
   D42        0.00000   0.00000   0.00000   0.00008   0.00008   0.00008
   D43        3.12668   0.00155   0.00000   0.00159   0.00158   3.12827
   D44       -3.12667  -0.00155   0.00000  -0.00124  -0.00124  -3.12791
   D45        0.00001   0.00000   0.00000   0.00026   0.00026   0.00028
   D46       -0.00001   0.00000   0.00000  -0.00013  -0.00013  -0.00014
   D47        1.55207   0.02059   0.00000  -0.00090  -0.00091   1.55116
   D48       -2.14391   0.01267   0.00000   0.00330   0.00330  -2.14061
   D49       -1.55208  -0.02059   0.00000   0.00152   0.00152  -1.55056
   D50        0.00000   0.00000   0.00000   0.00074   0.00075   0.00074
   D51        2.58720  -0.00792   0.00000   0.00494   0.00495   2.59215
   D52        2.14389  -0.01267   0.00000  -0.00410  -0.00411   2.13978
   D53       -2.58722   0.00792   0.00000  -0.00487  -0.00489  -2.59210
   D54       -0.00001   0.00000   0.00000  -0.00067  -0.00068  -0.00069
   D55       -1.66818  -0.00665   0.00000  -0.00087  -0.00086  -1.66904
   D56       -0.09825   0.00049   0.00000  -0.00042  -0.00042  -0.09867
   D57        2.47280  -0.00288   0.00000   0.00821   0.00819   2.48100
   D58        1.66819   0.00665   0.00000   0.00157   0.00156   1.66975
   D59        0.09825  -0.00049   0.00000  -0.00070  -0.00071   0.09755
   D60       -2.47278   0.00288   0.00000  -0.00773  -0.00772  -2.48050
   D61       -0.15941   0.00182   0.00000   0.00080   0.00080  -0.15861
   D62        1.84483   0.00154   0.00000   0.00118   0.00118   1.84601
   D63       -2.23331   0.00424   0.00000   0.00197   0.00197  -2.23133
   D64        0.15941  -0.00182   0.00000  -0.00029  -0.00029   0.15912
   D65       -1.84483  -0.00154   0.00000  -0.00077  -0.00077  -1.84560
   D66        2.23329  -0.00424   0.00000  -0.00143  -0.00144   2.23186
         Item               Value     Threshold  Converged?
 Maximum Force            0.101802     0.000015     NO 
 RMS     Force            0.016435     0.000010     NO 
 Maximum Displacement     0.011375     0.000060     NO 
 RMS     Displacement     0.002867     0.000040     NO 
 Predicted change in Energy=-1.041925D-03
 GradGradGradGradGradGradGradGradGradGradGradGradGradGradGradGradGradGrad

                          Input orientation:                          
 ---------------------------------------------------------------------
 Center     Atomic      Atomic             Coordinates (Angstroms)
 Number     Number       Type             X           Y           Z
 ---------------------------------------------------------------------
      1          6           0       -0.805618    0.724853    0.513755
      2          6           0        0.706801    0.554936    0.694961
      3          6           0        0.977515    1.485590   -0.542765
      4          6           0       -0.529061    1.675833   -0.751496
      5          6           0       -1.276117    2.730253    0.036926
      6          6           0       -1.509610    1.927419    1.104857
      7          1           0        1.518579    2.407245   -0.305819
      8          1           0       -1.489777    3.737578   -0.225358
      9          1           0       -1.987202    2.027883    2.048773
     10          1           0        1.092156    0.940936    1.644093
     11          6           0       -1.994437   -0.619689   -0.777457
     12          6           0       -1.721295    0.315386   -2.018287
     13          8           0       -0.631388   -0.090345   -2.561739
     14          8           0       -1.034417   -1.470181   -0.729186
     15          6           0       -0.197201   -1.295996   -1.894080
     16          1           0       -0.406166   -2.135410   -2.571990
     17          1           0        0.848945   -1.183623   -1.579391
     18          1           0       -2.544265    0.754439   -2.587041
     19          1           0       -3.012865   -0.850363   -0.456424
     20          1           0        1.053054   -0.477825    0.575336
     21          1           0        1.481471    0.994738   -1.382940
 ---------------------------------------------------------------------
                    Distance matrix (angstroms):
                    1          2          3          4          5
     1  C    0.000000
     2  C    1.532684   0.000000
     3  C    2.207831   1.572058   0.000000
     4  C    1.606769   2.208167   1.532818   0.000000
     5  C    2.114324   3.016120   2.638955   1.513772   0.000000
     6  C    1.513662   2.638977   3.015901   2.114431   1.356296
     7  H    2.983963   2.256455   1.094688   2.219554   2.834102
     8  H    3.176613   3.975066   3.355552   2.334650   1.062613
     9  H    2.334590   3.355597   3.974883   3.176731   2.246440
    10  H    2.219438   1.094690   2.256576   2.984504   3.375405
    11  C    2.210952   3.293090   3.649627   2.723494   3.521550
    12  C    2.723483   3.648938   3.290914   2.208392   3.202135
    13  O    3.186466   3.579558   3.024632   2.531173   3.889025
    14  O    2.532868   3.026736   3.580391   3.186422   4.276563
    15  C    3.201822   3.308519   3.308055   3.201155   4.593858
    16  H    4.226403   4.376028   4.375382   4.225503   5.589091
    17  H    3.280414   2.866264   2.866326   3.280366   4.737805
    18  H    3.555095   4.623934   4.137218   2.877367   3.520972
    19  H    2.880015   4.139621   4.624636   3.554998   4.010049
    20  H    2.214698   1.095808   2.260719   2.983590   4.000836
    21  H    2.983466   2.260799   1.095811   2.214690   3.554198
                    6          7          8          9         10
     6  C    0.000000
     7  H    3.374932   0.000000
     8  H    2.246451   3.290359   0.000000
     9  H    1.062622   4.240108   2.888279   0.000000
    10  H    2.834274   2.476702   4.240569   3.290542   0.000000
    11  C    3.204047   4.661121   4.421003   3.872630   4.222145
    12  C    3.521007   4.219621   3.870348   4.420897   4.660455
    13  O    4.276280   3.993681   4.566016   5.251852   4.660812
    14  O    3.890142   4.661701   5.251851   4.567418   3.996030
    15  C    4.594175   4.379551   5.458228   5.458788   4.380066
    16  H    5.589577   5.429170   6.416610   6.417487   5.429938
    17  H    4.737779   3.868428   5.614378   5.614363   3.868301
    18  H    4.009551   4.943929   3.948241   4.839706   5.582188
    19  H    3.523271   5.582890   4.839667   3.951240   4.946930
    20  H    3.554270   3.052339   4.987656   4.206274   1.776697
    21  H    4.000699   1.776722   4.206124   4.987558   3.052440
                   11         12         13         14         15
    11  C    0.000000
    12  C    1.577539   0.000000
    13  O    2.306897   1.283688   0.000000
    14  O    1.283474   2.306909   2.329084   0.000000
    15  C    2.221327   2.221450   1.444951   1.445077   0.000000
    16  H    2.835554   2.835939   2.057456   2.057463   1.099020
    17  H    3.007647   3.007622   2.086061   2.086148   1.098216
    18  H    2.337762   1.092487   2.091267   3.268057   3.192677
    19  H    1.092460   2.338063   3.268243   2.091131   3.192711
    20  H    3.337270   3.879829   3.581721   2.654069   2.886270
    21  H    3.880067   3.335101   2.651631   3.582306   2.885597
                   16         17         18         19         20
    16  H    0.000000
    17  H    1.861841   0.000000
    18  H    3.594846   4.035506   0.000000
    19  H    3.594697   4.035553   2.708229   0.000000
    20  H    3.844811   2.276546   4.945685   4.211295   0.000000
    21  H    3.843806   2.276828   4.208818   4.945896   2.487334
                   21
    21  H    0.000000
 Symmetry turned off by external request.
 Stoichiometry    C9H10O2
 Framework group  C1[X(C9H10O2)]
 Deg. of freedom    57
 Full point group                 C1      NOp   1
 Rotational constants (GHZ):           2.0203873           1.0771628           1.0276991
 Standard basis: VSTO-6G (5D, 7F)
    54 basis functions,   324 primitive gaussians,    54 cartesian basis functions
    29 alpha electrons       29 beta electrons
       nuclear repulsion energy       361.5794666817 Hartrees.
 Integral buffers will be    131072 words long.
 Regular integral format.
 Two-electron integral symmetry is turned off.
 Do NDO integrals.
 One-electron integrals computed using PRISM.
 NBasis=    54 RedAO= F EigKep=  0.00D+00  NBF=    54
 NBsUse=    54 1.00D-04 EigRej=  0.00D+00 NBFU=    54
 Initial guess from the checkpoint file:  "C:\Users\al6323\OneDrive - Imperial College London\Desktop\TSR20251115\Exercise 2\TS_Berny_PM6_exo.chk"
 B after Tr=    -0.000124    0.000112    0.000298
         Rot=    1.000000   -0.000018    0.000007    0.000020 Ang=   0.00 deg.
 Keep J ints in memory in canonical form, NReq=867381.
 Overlap will be assumed to be unity.
 Requested convergence on RMS density matrix=1.00D-08 within  32 cycles.
 Requested convergence on MAX density matrix=1.00D-06.
 Requested convergence on             energy=1.00D-06.
 No special actions if energy rises.
 SCF Done:  E(RPM6) =  0.225682376864     A.U. after   17 cycles
            NFock= 16  Conv=0.75D-08     -V/T= 1.0021
 QCSCF skips out because SCF is already converged.
 Calling FoFJK, ICntrl=      2127 FMM=F ISym2X=0 I1Cent= 0 IOpClX= 0 NMat=1 NMatS=1 NMatT=0.
 -------------------------------------------------------------------
 Center     Atomic                   Forces (Hartrees/Bohr)
 Number     Number              X              Y              Z
 -------------------------------------------------------------------
      1        6          -0.028837091    0.016588424   -0.036730915
      2        6          -0.015036652   -0.008173757   -0.002445351
      3        6          -0.013127607   -0.001640847   -0.011147486
      4        6          -0.040564219   -0.023496910    0.016388362
      5        6           0.008618887   -0.010355001   -0.022757091
      6        6           0.004065669   -0.026060445   -0.001866369
      7        1          -0.000274043    0.000286612   -0.000817710
      8        1          -0.000983256   -0.000725307    0.000582482
      9        1          -0.000612164    0.000529059   -0.001078893
     10        1          -0.000528188   -0.000616136    0.000383205
     11        6          -0.026495030    0.124052292    0.009135734
     12        6          -0.047681689    0.051096462    0.106317750
     13        8           0.061615459   -0.032589639   -0.054771497
     14        8           0.049732260   -0.073363589   -0.000506747
     15        6           0.019918261   -0.019559325   -0.010356426
     16        1           0.002310290   -0.002669054   -0.001502440
     17        1          -0.001665066    0.001888280    0.001061061
     18        1           0.014895407    0.002311558    0.004456832
     19        1           0.014743869    0.001819920    0.005158191
     20        1           0.000146930    0.001020804   -0.000658740
     21        1          -0.000242025   -0.000343403    0.001156050
 -------------------------------------------------------------------
 Cartesian Forces:  Max     0.124052292 RMS     0.029922312

 GradGradGradGradGradGradGradGradGradGradGradGradGradGradGradGradGradGrad
 Berny optimization.
 FormGI is forming the generalized inverse of G from B-inverse, IUseBI=4.
 Internal  Forces:  Max     0.097583815 RMS     0.015847469
 Search for a saddle point.
 Step number   2 out of a maximum of  126
 All quantities printed in internal units (Hartrees-Bohrs-Radians)
 Swapping is turned off.
 Update second derivatives using D2CorX and points    1    2
 ITU=  0  0
     Eigenvalues ---   -0.06319  -0.02075   0.00194   0.00461   0.00586
     Eigenvalues ---    0.00779   0.00997   0.01621   0.01812   0.01939
     Eigenvalues ---    0.02678   0.03026   0.03153   0.03309   0.03403
     Eigenvalues ---    0.03551   0.03584   0.04601   0.04615   0.05402
     Eigenvalues ---    0.05427   0.05531   0.05902   0.06208   0.06566
     Eigenvalues ---    0.07157   0.07671   0.07834   0.08429   0.08828
     Eigenvalues ---    0.08979   0.11697   0.11869   0.13641   0.14415
     Eigenvalues ---    0.18233   0.21387   0.22601   0.23074   0.24383
     Eigenvalues ---    0.25101   0.25175   0.25192   0.25449   0.25649
     Eigenvalues ---    0.25761   0.27277   0.27424   0.28608   0.28857
     Eigenvalues ---    0.29434   0.29670   0.35085   0.37911   0.52567
     Eigenvalues ---    0.65779   0.69595
 Eigenvectors required to have negative eigenvalues:
                          R3        R11       R15       A32       A26
   1                    0.64137   0.64024  -0.17424  -0.12691  -0.12688
                          D49       D47       D51       D53       D57
   1                    0.12640  -0.12625   0.10638  -0.10636   0.10591
 RFO step:  Lambda0=5.151069743D-02 Lambda=-7.46771031D-02.
 Linear search not attempted -- option 19 set.
 Maximum step size (   0.040) exceeded in Quadratic search.
    -- Step size scaled by   0.049
 Iteration  1 RMS(Cart)=  0.00288742 RMS(Int)=  0.00001118
 Iteration  2 RMS(Cart)=  0.00001184 RMS(Int)=  0.00000541
 Iteration  3 RMS(Cart)=  0.00000000 RMS(Int)=  0.00000541
 Variable       Old X    -DE/DX   Delta X   Delta X   Delta X     New X
                                 (Linear)    (Quad)   (Total)
    R1        2.89635  -0.01478   0.00000  -0.00304  -0.00304   2.89332
    R2        2.86041  -0.02327   0.00000  -0.00789  -0.00789   2.85252
    R3        4.17809  -0.05681   0.00000   0.02029   0.02028   4.19838
    R4        2.97076  -0.00992   0.00000   0.00184   0.00185   2.97261
    R5        2.06866  -0.00007   0.00000   0.00005   0.00005   2.06872
    R6        2.07078  -0.00084   0.00000   0.00006   0.00006   2.07084
    R7        2.89661  -0.01479   0.00000  -0.00278  -0.00278   2.89383
    R8        2.06866  -0.00007   0.00000   0.00005   0.00005   2.06871
    R9        2.07078  -0.00084   0.00000   0.00007   0.00007   2.07085
   R10        2.86061  -0.02326   0.00000  -0.00767  -0.00767   2.85294
   R11        4.17326  -0.05690   0.00000   0.01526   0.01526   4.18851
   R12        2.56303  -0.00276   0.00000   0.00362   0.00362   2.56664
   R13        2.00805  -0.00063   0.00000   0.00006   0.00006   2.00811
   R14        2.00806  -0.00063   0.00000   0.00008   0.00008   2.00814
   R15        2.98112  -0.03891   0.00000  -0.01871  -0.01872   2.96240
   R16        2.42541   0.09757   0.00000   0.00723   0.00723   2.43264
   R17        2.06445  -0.01261   0.00000  -0.00189  -0.00189   2.06256
   R18        2.42582   0.09758   0.00000   0.00766   0.00766   2.43347
   R19        2.06450  -0.01261   0.00000  -0.00184  -0.00184   2.06266
   R20        2.73056   0.01582   0.00000   0.00128   0.00128   2.73184
   R21        2.73080   0.01583   0.00000   0.00153   0.00153   2.73233
   R22        2.07685   0.00253   0.00000   0.00008   0.00008   2.07693
   R23        2.07533  -0.00109   0.00000  -0.00035  -0.00035   2.07498
    A1        2.09538   0.01462   0.00000   0.00689   0.00689   2.10227
    A2        2.13201  -0.00960   0.00000  -0.00362  -0.00362   2.12839
    A3        2.05006  -0.00437   0.00000  -0.00338  -0.00338   2.04668
    A4        1.58201  -0.00332   0.00000  -0.00089  -0.00089   1.58112
    A5        1.99411   0.00060   0.00000   0.00083   0.00083   1.99494
    A6        1.98600   0.00139   0.00000   0.00048   0.00047   1.98648
    A7        1.99684   0.00292   0.00000   0.00107   0.00107   1.99791
    A8        2.00157  -0.00119   0.00000  -0.00143  -0.00143   2.00014
    A9        1.89204  -0.00055   0.00000  -0.00010  -0.00009   1.89194
   A10        1.58223  -0.00333   0.00000  -0.00067  -0.00067   1.58156
   A11        1.99667   0.00292   0.00000   0.00088   0.00088   1.99755
   A12        2.00168  -0.00119   0.00000  -0.00130  -0.00130   2.00038
   A13        1.99411   0.00060   0.00000   0.00082   0.00082   1.99493
   A14        1.98582   0.00139   0.00000   0.00030   0.00030   1.98611
   A15        1.89207  -0.00055   0.00000  -0.00007  -0.00007   1.89201
   A16        2.09507   0.01461   0.00000   0.00658   0.00657   2.10164
   A17        2.13209  -0.00960   0.00000  -0.00353  -0.00353   2.12855
   A18        2.05041  -0.00436   0.00000  -0.00302  -0.00302   2.04739
   A19        1.65364  -0.00402   0.00000  -0.00088  -0.00088   1.65276
   A20        2.25361   0.00288   0.00000   0.00245   0.00245   2.25606
   A21        2.37585   0.00115   0.00000  -0.00155  -0.00156   2.37430
   A22        1.65361  -0.00402   0.00000  -0.00090  -0.00090   1.65272
   A23        2.25368   0.00288   0.00000   0.00251   0.00251   2.25619
   A24        2.37581   0.00115   0.00000  -0.00159  -0.00159   2.37422
   A25        1.57659   0.00119   0.00000   0.00104   0.00103   1.57762
   A26        1.54962   0.01883   0.00000  -0.00169  -0.00170   1.54792
   A27        2.04659  -0.01248   0.00000  -0.00539  -0.00539   2.04120
   A28        1.86801  -0.00178   0.00000   0.00319   0.00318   1.87119
   A29        2.11497   0.00529   0.00000   0.00422   0.00422   2.11919
   A30        2.14877  -0.00662   0.00000  -0.00319  -0.00322   2.14555
   A31        1.57823   0.00124   0.00000   0.00273   0.00273   1.58096
   A32        1.54998   0.01884   0.00000  -0.00133  -0.00134   1.54864
   A33        2.04625  -0.01250   0.00000  -0.00576  -0.00577   2.04047
   A34        1.86780  -0.00180   0.00000   0.00296   0.00296   1.87076
   A35        2.11446   0.00528   0.00000   0.00371   0.00372   2.11818
   A36        2.14863  -0.00662   0.00000  -0.00333  -0.00336   2.14527
   A37        1.89994   0.00676   0.00000  -0.00228  -0.00228   1.89766
   A38        1.89986   0.00675   0.00000  -0.00237  -0.00236   1.89750
   A39        1.87440  -0.00965   0.00000  -0.00145  -0.00144   1.87296
   A40        1.87040   0.00270   0.00000   0.00078   0.00078   1.87118
   A41        1.91056   0.00185   0.00000  -0.00017  -0.00017   1.91039
   A42        1.87027   0.00270   0.00000   0.00063   0.00063   1.87090
   A43        1.91053   0.00185   0.00000  -0.00021  -0.00022   1.91031
   A44        2.02197  -0.00035   0.00000   0.00029   0.00029   2.02226
    D1       -1.46849  -0.00555   0.00000  -0.00102  -0.00101  -1.46950
    D2        0.57846  -0.00383   0.00000  -0.00007  -0.00007   0.57839
    D3        2.76442  -0.00288   0.00000   0.00092   0.00092   2.76534
    D4        1.55524   0.00084   0.00000  -0.00233  -0.00233   1.55291
    D5       -2.68099   0.00256   0.00000  -0.00138  -0.00138  -2.68238
    D6       -0.49504   0.00351   0.00000  -0.00039  -0.00039  -0.49543
    D7        1.50978   0.00448   0.00000   0.00080   0.00080   1.51058
    D8       -1.61983   0.00310   0.00000  -0.00052  -0.00052  -1.62035
    D9       -1.51938  -0.00119   0.00000   0.00211   0.00211  -1.51727
   D10        1.63419  -0.00257   0.00000   0.00079   0.00079   1.63498
   D11       -1.55280  -0.00332   0.00000   0.00067   0.00067  -1.55213
   D12        0.31515  -0.00513   0.00000   0.00384   0.00383   0.31898
   D13        2.53422  -0.00563   0.00000  -0.00295  -0.00295   2.53127
   D14        1.47383   0.00415   0.00000   0.00006   0.00006   1.47390
   D15       -2.94140   0.00234   0.00000   0.00323   0.00322  -2.93818
   D16       -0.72233   0.00184   0.00000  -0.00357  -0.00356  -0.72589
   D17       -0.00019  -0.00001   0.00000  -0.00020  -0.00020  -0.00040
   D18        2.04442  -0.00033   0.00000   0.00059   0.00059   2.04501
   D19       -2.03670   0.00045   0.00000   0.00013   0.00012  -2.03657
   D20       -2.04474   0.00032   0.00000  -0.00094  -0.00094  -2.04568
   D21       -0.00013   0.00000   0.00000  -0.00014  -0.00014  -0.00027
   D22        2.20194   0.00077   0.00000  -0.00061  -0.00061   2.20133
   D23        2.03638  -0.00046   0.00000  -0.00048  -0.00048   2.03590
   D24       -2.20219  -0.00078   0.00000   0.00032   0.00032  -2.20187
   D25       -0.00013   0.00000   0.00000  -0.00015  -0.00015  -0.00028
   D26        1.46848   0.00555   0.00000   0.00101   0.00101   1.46948
   D27       -1.55649  -0.00087   0.00000   0.00099   0.00099  -1.55550
   D28       -0.57840   0.00383   0.00000   0.00016   0.00016  -0.57824
   D29        2.67983  -0.00259   0.00000   0.00014   0.00014   2.67996
   D30       -2.76424   0.00289   0.00000  -0.00071  -0.00071  -2.76495
   D31        0.49398  -0.00353   0.00000  -0.00073  -0.00073   0.49325
   D32       -1.50944  -0.00447   0.00000  -0.00046  -0.00046  -1.50990
   D33        1.62001  -0.00310   0.00000   0.00070   0.00070   1.62071
   D34        1.52089   0.00123   0.00000  -0.00051  -0.00051   1.52038
   D35       -1.63285   0.00261   0.00000   0.00064   0.00065  -1.63221
   D36        1.55372   0.00334   0.00000   0.00028   0.00028   1.55400
   D37       -0.31399   0.00515   0.00000  -0.00263  -0.00262  -0.31661
   D38       -2.53299   0.00565   0.00000   0.00424   0.00423  -2.52876
   D39       -1.47408  -0.00414   0.00000  -0.00035  -0.00035  -1.47443
   D40        2.94140  -0.00234   0.00000  -0.00326  -0.00326   2.93814
   D41        0.72239  -0.00184   0.00000   0.00361   0.00360   0.72599
   D42        0.00008   0.00000   0.00000   0.00009   0.00009   0.00017
   D43        3.12827   0.00156   0.00000   0.00162   0.00162   3.12988
   D44       -3.12791  -0.00155   0.00000  -0.00126  -0.00125  -3.12916
   D45        0.00028   0.00001   0.00000   0.00027   0.00027   0.00055
   D46       -0.00014  -0.00001   0.00000  -0.00013  -0.00013  -0.00027
   D47        1.55116   0.02007   0.00000  -0.00068  -0.00069   1.55047
   D48       -2.14061   0.01243   0.00000   0.00354   0.00354  -2.13707
   D49       -1.55056  -0.02007   0.00000   0.00132   0.00133  -1.54923
   D50        0.00074   0.00001   0.00000   0.00077   0.00077   0.00151
   D51        2.59215  -0.00763   0.00000   0.00499   0.00500   2.59715
   D52        2.13978  -0.01246   0.00000  -0.00437  -0.00438   2.13540
   D53       -2.59210   0.00762   0.00000  -0.00492  -0.00494  -2.59704
   D54       -0.00069  -0.00002   0.00000  -0.00070  -0.00071  -0.00140
   D55       -1.66904  -0.00656   0.00000  -0.00094  -0.00093  -1.66996
   D56       -0.09867   0.00049   0.00000  -0.00044  -0.00044  -0.09911
   D57        2.48100  -0.00261   0.00000   0.00834   0.00833   2.48932
   D58        1.66975   0.00656   0.00000   0.00166   0.00165   1.67140
   D59        0.09755  -0.00053   0.00000  -0.00073  -0.00073   0.09682
   D60       -2.48050   0.00259   0.00000  -0.00786  -0.00785  -2.48836
   D61       -0.15861   0.00180   0.00000   0.00080   0.00080  -0.15781
   D62        1.84601   0.00156   0.00000   0.00122   0.00121   1.84722
   D63       -2.23133   0.00412   0.00000   0.00198   0.00198  -2.22935
   D64        0.15912  -0.00180   0.00000  -0.00028  -0.00028   0.15883
   D65       -1.84560  -0.00156   0.00000  -0.00079  -0.00079  -1.84639
   D66        2.23186  -0.00412   0.00000  -0.00143  -0.00143   2.23043
         Item               Value     Threshold  Converged?
 Maximum Force            0.097584     0.000015     NO 
 RMS     Force            0.015847     0.000010     NO 
 Maximum Displacement     0.011148     0.000060     NO 
 RMS     Displacement     0.002885     0.000040     NO 
 Predicted change in Energy=-1.112471D-03
 GradGradGradGradGradGradGradGradGradGradGradGradGradGradGradGradGradGrad

                          Input orientation:                          
 ---------------------------------------------------------------------
 Center     Atomic      Atomic             Coordinates (Angstroms)
 Number     Number       Type             X           Y           Z
 ---------------------------------------------------------------------
      1          6           0       -0.803180    0.730043    0.517698
      2          6           0        0.707418    0.555408    0.696004
      3          6           0        0.977730    1.486335   -0.542846
      4          6           0       -0.527590    1.679631   -0.746984
      5          6           0       -1.276359    2.730839    0.036305
      6          6           0       -1.509622    1.927224    1.106130
      7          1           0        1.522322    2.406465   -0.307947
      8          1           0       -1.493898    3.737320   -0.226158
      9          1           0       -1.990263    2.028551    2.048450
     10          1           0        1.096376    0.938776    1.644764
     11          6           0       -1.997010   -0.618258   -0.783356
     12          6           0       -1.724624    0.311878   -2.015481
     13          8           0       -0.630946   -0.091731   -2.562507
     14          8           0       -1.035148   -1.472184   -0.730723
     15          6           0       -0.195673   -1.297874   -1.894976
     16          1           0       -0.402375   -2.137618   -2.573240
     17          1           0        0.849534   -1.183860   -1.578404
     18          1           0       -2.543703    0.755690   -2.584287
     19          1           0       -3.013031   -0.848147   -0.457579
     20          1           0        1.050907   -0.477990    0.573635
     21          1           0        1.478237    0.993160   -1.383766
 ---------------------------------------------------------------------
                    Distance matrix (angstroms):
                    1          2          3          4          5
     1  C    0.000000
     2  C    1.531077   0.000000
     3  C    2.206438   1.573036   0.000000
     4  C    1.605331   2.207111   1.531347   0.000000
     5  C    2.111593   3.017130   2.639151   1.509713   0.000000
     6  C    1.509488   2.639194   3.016690   2.111804   1.358210
     7  H    2.983294   2.257963   1.094713   2.218825   2.838370
     8  H    3.173977   3.977529   3.358000   2.332186   1.062644
     9  H    2.332058   3.358087   3.977159   3.174210   2.247576
    10  H    2.218593   1.094717   2.258215   2.984391   3.380606
    11  C    2.221686   3.298473   3.651880   2.727784   3.522446
    12  C    2.727805   3.650519   3.294043   2.216466   3.203457
    13  O    3.192592   3.581606   3.026080   2.538608   3.890666
    14  O    2.542080   3.030382   3.583268   3.192463   4.279243
    15  C    3.209752   3.311103   3.310129   3.208363   4.596548
    16  H    4.235330   4.378582   4.377240   4.233472   5.592445
    17  H    3.284529   2.866737   2.866838   3.284405   4.738309
    18  H    3.557020   4.622792   4.135434   2.879941   3.517794
    19  H    2.885358   4.140345   4.624202   3.556801   4.008627
    20  H    2.213619   1.095842   2.260632   2.981781   4.000184
    21  H    2.981554   2.260804   1.095846   2.213613   3.553017
                    6          7          8          9         10
     6  C    0.000000
     7  H    3.379640   0.000000
     8  H    2.247595   3.297795   0.000000
     9  H    1.062663   4.246608   2.887925   0.000000
    10  H    2.838728   2.479641   4.247554   3.298168   0.000000
    11  C    3.207363   4.664832   4.419801   3.876180   4.229557
    12  C    3.521366   4.224409   3.871506   4.419623   4.663522
    13  O    4.278685   3.995071   4.567805   5.253977   4.663337
    14  O    3.892959   4.665117   5.253948   4.570689   3.999883
    15  C    4.597211   4.380902   5.461091   5.462259   4.381981
    16  H    5.593451   5.429982   6.419899   6.421711   5.431576
    17  H    4.738267   3.867446   5.615893   5.615880   3.867212
    18  H    4.007617   4.943616   3.943727   4.836190   5.582881
    19  H    3.522514   5.584292   4.836096   3.949890   4.949764
    20  H    3.553155   3.052785   4.988440   4.207915   1.776686
    21  H    3.999920   1.776728   4.207620   4.988251   3.052994
                   11         12         13         14         15
    11  C    0.000000
    12  C    1.567635   0.000000
    13  O    2.304070   1.287739   0.000000
    14  O    1.287299   2.304097   2.329048   0.000000
    15  C    2.223149   2.223402   1.445628   1.445886   0.000000
    16  H    2.838133   2.838921   2.058643   2.058658   1.099062
    17  H    3.009122   3.009080   2.086391   2.086557   1.098032
    18  H    2.330227   1.091512   2.092184   3.267240   3.194607
    19  H    1.091457   2.330818   3.267601   2.091901   3.194662
    20  H    3.339296   3.876982   3.579555   2.653563   2.884478
    21  H    3.877435   3.334896   2.648598   3.580711   2.883079
                   16         17         18         19         20
    16  H    0.000000
    17  H    1.861889   0.000000
    18  H    3.599533   4.035804   0.000000
    19  H    3.599206   4.035884   2.704709   0.000000
    20  H    3.843074   2.273779   4.941220   4.209039   0.000000
    21  H    3.841005   2.274328   4.204003   4.941632   2.485621
                   21
    21  H    0.000000
 Symmetry turned off by external request.
 Stoichiometry    C9H10O2
 Framework group  C1[X(C9H10O2)]
 Deg. of freedom    57
 Full point group                 C1      NOp   1
 Rotational constants (GHZ):           2.0198336           1.0758584           1.0256435
 Standard basis: VSTO-6G (5D, 7F)
    54 basis functions,   324 primitive gaussians,    54 cartesian basis functions
    29 alpha electrons       29 beta electrons
       nuclear repulsion energy       361.4792201358 Hartrees.
 Integral buffers will be    131072 words long.
 Regular integral format.
 Two-electron integral symmetry is turned off.
 Do NDO integrals.
 One-electron integrals computed using PRISM.
 NBasis=    54 RedAO= F EigKep=  0.00D+00  NBF=    54
 NBsUse=    54 1.00D-04 EigRej=  0.00D+00 NBFU=    54
 Initial guess from the checkpoint file:  "C:\Users\al6323\OneDrive - Imperial College London\Desktop\TSR20251115\Exercise 2\TS_Berny_PM6_exo.chk"
 B after Tr=    -0.000091    0.000146    0.000338
         Rot=    1.000000   -0.000017    0.000013    0.000013 Ang=   0.00 deg.
 Keep J ints in memory in canonical form, NReq=867381.
 Overlap will be assumed to be unity.
 Requested convergence on RMS density matrix=1.00D-08 within  32 cycles.
 Requested convergence on MAX density matrix=1.00D-06.
 Requested convergence on             energy=1.00D-06.
 No special actions if energy rises.
 SCF Done:  E(RPM6) =  0.224563945774     A.U. after   17 cycles
            NFock= 16  Conv=0.75D-08     -V/T= 1.0021
 QCSCF skips out because SCF is already converged.
 Calling FoFJK, ICntrl=      2127 FMM=F ISym2X=0 I1Cent= 0 IOpClX= 0 NMat=1 NMatS=1 NMatT=0.
 -------------------------------------------------------------------
 Center     Atomic                   Forces (Hartrees/Bohr)
 Number     Number              X              Y              Z
 -------------------------------------------------------------------
      1        6          -0.028073062    0.015914330   -0.035292475
      2        6          -0.014585068   -0.008009775   -0.002269607
      3        6          -0.012680600   -0.001510450   -0.010939898
      4        6          -0.039395973   -0.022619631    0.015595952
      5        6           0.008429234   -0.009916411   -0.022290325
      6        6           0.003951966   -0.025447940   -0.001615542
      7        1          -0.000241159    0.000270128   -0.000790600
      8        1          -0.001022822   -0.000699742    0.000590268
      9        1          -0.000646578    0.000554362   -0.001063975
     10        1          -0.000475833   -0.000597602    0.000364683
     11        6          -0.024784353    0.119866737    0.007772587
[...]
 0478,0.00015426,-0.00046732,0.10726374,0.14391032,0.00090692,-0.000536
 23,-0.00011297,0.00962068,0.01513020,0.00211999,-0.03460429,-0.0293923
 0,-0.04603415,-0.00235217,-0.00374722,0.00229282,-0.00038595,0.0004667
 3,0.00029113,0.00079981,0.00035318,-0.00050728,0.03564142,0.03362200,0
 .05125752,0.00322911,0.00194439,0.00272167,0.00050582,-0.00128255,0.00
 027124,-0.00021880,0.00026821,0.00124171,-0.00719323,0.02197706,-0.001
 81299,-0.06221621,0.06236580,-0.01147539,0.00401932,-0.00532918,0.0020
 7706,0.00000940,-0.00003084,0.00005497,0.06091711,0.00254005,-0.001352
 52,0.00185586,0.00015230,-0.00060331,0.00028910,-0.00085336,-0.0006615
 8,0.00038153,0.01509836,-0.01707238,-0.00075661,0.06011857,-0.20357137
 ,0.03300153,0.00333190,-0.01735974,0.00921645,0.00001816,0.00026829,-0
 .00003521,-0.08067739,0.23995210,0.00224845,0.00123900,0.00286920,0.00
 054700,-0.00112788,0.00016830,-0.00067584,-0.00097986,0.00102933,0.008
 08149,-0.00912573,0.00388825,-0.01537546,0.03381797,-0.04637121,-0.001
 82246,0.01840714,-0.00341731,-0.00015056,0.00000536,0.00001798,0.00661
 044,-0.04413816,0.04137962,-0.01611870,0.00359491,0.01741852,-0.000128
 09,0.00131419,0.00044983,0.00066377,-0.00013185,-0.00055400,0.00123527
 ,0.00081529,0.00272514,-0.00398745,-0.00216021,0.00781316,-0.13812641,
 0.00022067,0.10185112,-0.00002544,-0.00000180,-0.00005063,0.00069267,-
 0.00000130,0.00014937,0.15543812,0.01723991,-0.00202658,-0.01105308,-0
 .00001340,0.00053681,-0.00125654,0.00041437,-0.00011024,-0.00034663,0.
 00054149,0.00106544,0.00069579,-0.01128867,-0.00122110,0.01526482,-0.0
 0288551,-0.03748593,0.00188806,-0.00004384,0.00005989,-0.00001998,-0.0
 0028324,-0.00000947,0.00051035,-0.00410329,0.03857609,0.01257369,-0.00
 706527,-0.00455172,-0.00045918,0.00087811,-0.00099626,0.00081805,0.000
 04165,-0.00082281,0.00324966,0.00111759,0.00070822,0.01348074,0.006749
 74,-0.01315405,0.09841266,0.00365938,-0.13141159,0.00008220,-0.0000163
 1,0.00006979,0.00057540,0.00047473,0.00018154,-0.12946156,-0.00635766,
 0.14786574,-0.02655177,0.00042450,-0.02228973,-0.06564577,-0.01849708,
 -0.06635701,0.00398764,0.00172154,0.00426690,-0.00048385,0.00245972,0.
 00025413,0.00139935,0.00048647,-0.00051169,0.00102991,-0.00261470,-0.0
 0055948,0.00043722,0.00016493,0.00029447,-0.00000321,0.00009279,-0.000
 08195,0.00009880,-0.00013264,-0.00009804,0.08246564,0.00597977,0.00273
 729,0.00129264,-0.02016176,-0.04138983,-0.03590852,0.00235979,0.002719
 66,0.01539248,0.00089897,-0.00146404,-0.00038282,-0.00042868,-0.000645
 20,0.00087461,-0.00027606,0.00109252,0.00010707,-0.00000463,0.00046102
 ,0.00064561,0.00002482,0.00000969,0.00003238,0.00006459,0.00006570,0.0
 0009600,0.01851638,0.04771098,-0.01367375,0.00165388,-0.00366696,-0.06
 327812,-0.03463968,-0.17782550,-0.00424672,0.00333371,-0.02595155,-0.0
 0121863,0.00049874,-0.00046831,-0.00005662,0.00020005,-0.00048972,0.00
 041668,-0.00034360,0.00031500,0.00024685,-0.00008658,0.00041290,-0.000
 06117,0.00008583,-0.00000591,-0.00011671,-0.00001697,0.00024487,0.0852
 8340,0.03743924,0.21709935,-0.00812386,0.04736811,0.03389977,-0.013902
 34,-0.00778879,-0.00737418,-0.00192834,-0.00011100,-0.00140139,-0.0042
 8545,0.00760934,0.00988728,0.01101295,0.00443219,-0.01893061,0.0109196
 2,-0.02746680,0.00423440,0.00010149,0.00022268,-0.00012471,0.00019998,
 0.00037217,0.00043146,-0.00046757,0.00016232,0.00066553,-0.00141452,-0
 .00021854,0.00070830,0.33331500,0.00535242,0.04212923,0.03505851,-0.00
 764955,-0.00370363,-0.00392291,-0.00057201,-0.00062313,-0.00169445,-0.
 01005882,0.00139517,0.00904193,0.01102410,0.00460343,-0.02046726,0.011
 75849,-0.04197054,-0.00180676,-0.00017134,0.00006416,0.00002586,0.0006
 3491,-0.00026660,0.00064579,-0.00018642,-0.00013586,-0.00052352,-0.000
 68153,0.00007084,0.00023306,-0.08203962,0.36790115,0.01490631,0.134565
 28,0.08225436,-0.01700028,-0.01360386,-0.00727135,-0.00334917,-0.00129
 288,-0.00463886,-0.00421664,0.05307789,0.04582330,0.03472908,0.0130576
 1,-0.05922911,0.02743575,-0.09103737,0.01059089,-0.00037324,0.00072569
 ,-0.00032510,-0.00010702,-0.00032820,0.00036862,-0.00026759,0.00068334
 ,0.00117254,-0.00231172,0.00003599,0.00105058,-0.24079429,-0.25218189,
 0.45244528,0.00022997,0.02403738,0.01265885,-0.00435346,-0.00199483,-0
 .00087570,-0.00454467,-0.00141793,-0.00353810,-0.00421415,0.02195300,0
 .02298155,0.01115610,0.00606151,-0.02337543,0.00947222,-0.02466334,0.0
 0642166,-0.00014172,0.00078246,-0.00061526,-0.00035932,0.00015630,-0.0
 0015483,-0.00045302,0.00074767,0.00201809,-0.00015395,-0.00010477,0.00
 041760,-0.05840813,-0.01981982,-0.01734907,0.28393612,0.00218520,0.061
 95568,0.02801044,-0.00393729,-0.00667141,-0.00264521,-0.00363229,-0.00
 056989,-0.00382490,-0.00270915,0.03853446,0.03206270,0.02786890,0.0017
 5780,-0.03893662,0.00377788,-0.04587851,0.01335926,-0.00035503,0.00014
 080,0.00009462,0.00042353,-0.00000863,0.00076725,0.00148984,0.00054722
 ,-0.00027312,-0.00108609,0.00005959,0.00034200,-0.03720728,-0.16442024
 ,0.12311706,-0.20101231,0.44911047,-0.01225193,-0.04977251,-0.05919217
 ,0.00389299,0.00140358,0.00224248,-0.00034689,0.00021550,0.00129518,0.
 00004927,-0.01528607,-0.01439497,-0.00781747,-0.00774790,0.01655067,-0
 .01444928,0.02478935,-0.00266486,0.00000834,-0.00052029,0.00033382,0.0
 0013257,-0.00015936,0.00003289,0.00130170,0.00008289,-0.00088445,0.000
 73713,0.00000897,-0.00060520,0.05330516,0.20612127,-0.26850761,-0.0670
 4847,-0.21477884,0.55207588,0.00058844,-0.00474861,-0.01011267,0.00207
 104,-0.00120970,-0.00046986,0.00059185,-0.00037790,-0.00035745,0.00002
 578,-0.00344079,-0.00756700,0.00134062,-0.00473144,0.00732033,-0.00895
 090,0.00654777,0.00152175,-0.00006212,-0.00051091,0.00051706,0.0003952
 3,0.00002740,0.00039068,0.00123416,-0.00026891,-0.00167600,-0.00012892
 ,0.00010429,-0.00021233,-0.01361250,0.01120683,0.06440711,-0.12964401,
 0.06221261,0.09186782,0.22584076,0.00040797,-0.00040948,0.00487234,-0.
 00123945,0.00181450,0.00068208,-0.00015059,-0.00071763,-0.00094942,0.0
 0030946,-0.00177393,0.00086003,-0.00217822,0.00286921,-0.00350789,0.00
 559516,-0.00276771,-0.00304301,0.00023405,0.00035707,-0.00025534,-0.00
 030146,0.00016815,-0.00026622,-0.00111443,0.00019467,0.00149619,0.0002
 6829,-0.00010086,0.00014718,0.00551632,-0.00311690,-0.01611509,0.05909
 817,-0.07484340,-0.03053838,-0.14454943,0.29051116,-0.00026762,0.00096
 574,0.00502415,-0.00132688,0.00083540,0.00018165,-0.00031820,-0.000809
 48,-0.00072016,0.00039513,-0.00113677,0.00242017,-0.00130866,0.0028793
 9,-0.00402015,0.00564227,-0.00348118,-0.00209266,0.00020308,0.00033000
 ,-0.00028013,-0.00035651,0.00009074,-0.00036859,-0.00094408,0.00015354
 ,0.00115577,0.00022824,-0.00002670,0.00013669,0.03817752,-0.00095547,-
 0.07587832,0.10225680,-0.04121299,-0.14820568,-0.12330485,-0.05606995,
 0.34849016,0.00120856,0.00295688,0.00149845,-0.00065436,-0.00358477,-0
 .00151073,0.00022081,-0.00072063,-0.00043737,-0.00020877,0.00070855,0.
 00260046,-0.00006236,0.00158745,-0.00162359,0.00327632,-0.00133019,0.0
 0044686,-0.00007334,0.00007648,0.00002106,-0.00017667,-0.00047942,-0.0
 0033877,-0.00023754,-0.00016034,-0.00008062,0.00013406,0.00010636,-0.0
 0004768,-0.09410251,0.08491607,0.00386411,-0.01441598,0.03838603,-0.00
 921743,0.01613493,-0.01839571,0.00454248,0.21375727,0.00058389,-0.0138
 7429,-0.00735187,-0.00044580,-0.00131771,-0.00127644,-0.00039181,0.000
 37160,0.00042658,0.00003412,-0.00205481,-0.00394628,-0.00017246,-0.002
 29354,0.00279155,-0.00359729,0.00208813,-0.00090104,0.00018707,-0.0000
 5270,0.00008049,0.00018793,0.00071152,0.00036405,0.00006071,0.00001920
 ,0.00016475,0.00022767,-0.00018360,0.00021062,0.09522577,-0.16828725,0
 .02019409,0.03385613,-0.06347644,0.02693504,-0.01061035,-0.00757364,0.
 03426966,-0.13424798,0.31745484,0.00067345,-0.00830164,-0.00308200,-0.
 00025797,-0.00208703,-0.00060336,-0.00003369,0.00024606,0.00040910,-0.
 00009765,-0.00156922,-0.00167618,-0.00030267,-0.00105801,0.00165809,-0
 .00221567,0.00088150,-0.00073252,0.00007752,-0.00006414,0.00006608,0.0
 0010794,0.00030715,0.00017997,0.00026671,0.00011143,-0.00005259,0.0001
 8772,0.00005572,0.00005474,0.01193984,0.01589042,-0.04348512,-0.003058
 65,0.02514784,-0.01913170,-0.01192112,0.05156265,-0.04337251,-0.114255
 45,-0.06744315,0.32039283,0.00037000,0.00071383,0.00176963,-0.00023691
 ,-0.00011363,-0.00002107,-0.00011964,0.00003576,-0.00004038,0.00025714
 ,0.00077796,0.00087255,0.00025498,0.00036521,-0.00129440,0.00070994,-0
 .00134442,-0.00011174,0.00004516,0.00003525,-0.00004244,-0.00001975,0.
 00012040,0.00002271,-0.00018050,0.00004318,0.00021517,0.00004401,-0.00
 000999,0.00003597,-0.03155668,0.01531389,0.02708863,-0.02522417,0.0367
 1326,-0.00539613,-0.06581697,0.04497493,-0.01415233,-0.08237986,0.0035
 6196,0.07123354,0.45477572,0.00045463,-0.00068251,-0.00265289,0.000660
 03,-0.00130085,-0.00077496,0.00009241,-0.00010107,0.00019185,-0.000028
 79,-0.00053001,-0.00176640,0.00094370,-0.00151429,0.00163726,-0.003231
 50,0.00093947,0.00091863,-0.00011436,-0.00018559,0.00013909,0.00018388
 ,-0.00004012,0.00019113,0.00063042,-0.00003547,-0.00070589,-0.00015011
 ,0.00006921,-0.00006409,0.01442838,0.01044324,-0.02415579,0.04495768,-
 0.04729900,-0.01963806,0.03557646,-0.13796566,0.06265410,0.00844481,-0
 .06712772,0.01088163,-0.03806912,0.42551090,0.00039984,0.00057503,0.00
 141441,-0.00048865,0.00047013,-0.00016551,0.00017024,-0.00055504,-0.00
 066744,0.00015135,0.00109183,0.00222337,-0.00037639,0.00161554,-0.0020
 4435,0.00259690,-0.00148424,-0.00049809,-0.00004204,0.00015245,-0.0001
 0246,-0.00012057,-0.00023940,-0.00016718,-0.00043512,-0.00001034,0.000
 40902,-0.00001178,-0.00005042,-0.00004108,0.03195543,-0.04032034,-0.02
 497149,-0.01442063,-0.00428040,0.03488336,-0.00360433,0.04749649,-0.09
 799616,0.06489202,0.02337233,-0.16784320,-0.02295714,0.05448194,0.3846
 4549,-0.00012399,-0.00019666,-0.00026496,0.00002008,-0.00005098,-0.000
 10168,-0.00000300,-0.00006058,-0.00001684,0.00000362,-0.00014181,-0.00
 011711,-0.00007300,-0.00003456,0.00021394,-0.00004814,0.00031189,0.000
 04291,0.00000151,0.00000102,-0.00000521,0.00000113,-0.00001965,-0.0000
 0984,0.00001895,-0.00001064,-0.00002838,-0.00000469,-0.00001551,0.0000
 0361,0.00009721,-0.00026531,0.00183829,-0.00007002,0.00113854,-0.00062
 951,0.00371707,0.01049887,0.00306293,0.00243171,0.00986110,0.01208249,
 -0.05020640,-0.04348765,-0.03040961,0.05247336,-0.00006201,0.00003924,
 -0.00019724,0.00005674,0.00003914,0.00007120,0.00005480,0.00007684,0.0
 0006826,0.00004756,0.00008809,0.00005183,0.00004062,0.00000252,0.00000
 050,-0.00009488,0.00008534,0.00010965,-0.00003215,-0.00002665,0.000008
 67,0.00001062,-0.00006948,-0.00000289,0.00004634,-0.00001542,-0.000079
 35,-0.00002714,0.00000872,-0.00003526,0.00121343,-0.00139910,0.0013127
 2,-0.00142551,-0.00313185,0.00076213,0.00497468,-0.03699750,-0.0044558
 8,0.00019706,0.00179511,-0.01102711,-0.03823477,-0.14023946,-0.0747909
 2,0.03881611,0.18103910,0.00021953,0.00005116,-0.00013604,0.00009688,0
 .00005314,0.00006917,0.00002429,0.00003244,0.00002591,-0.00007953,0.00
 005809,-0.00015740,0.00017046,-0.00013918,0.00011144,-0.00037788,-0.00
 007648,0.00012916,-0.00002089,-0.00003030,0.00001325,0.00002782,-0.000
 02227,0.00002685,0.00007432,-0.00000782,-0.00009437,-0.00001685,0.0000
 1007,-0.00002601,-0.00193635,0.00020860,-0.00355116,0.00266421,0.00194
 131,-0.00266345,-0.00361680,0.00752024,0.00894191,0.00917015,-0.021323
 14,-0.02950482,-0.02739121,-0.07571004,-0.08642034,0.02636816,0.094458
 10,0.11143268,0.00014964,-0.00000101,0.00053379,-0.00026195,0.00021130
 ,0.00008221,-0.00020207,0.00006385,0.00002149,0.00009293,0.00005359,0.
 00025758,-0.00017830,0.00016800,-0.00033222,0.00029876,-0.00032311,-0.
 00024237,0.00004247,-0.00001391,-0.00004887,-0.00000552,0.00004201,0.0
 0000808,-0.00006590,0.00003413,0.00013211,0.00005074,-0.00004782,-0.00
 000592,-0.00156488,-0.00028480,0.00002757,-0.00142784,0.00056869,0.000
 38916,-0.01742671,0.01245562,-0.01104289,-0.02427689,-0.00280835,0.015
 39442,-0.19849561,-0.02397961,-0.03031296,-0.00812402,-0.00592633,-0.0
 0520087,0.25119222,0.00009326,0.00004059,0.00034777,-0.00005132,0.0000
 2744,0.00002523,-0.00010444,-0.00001327,-0.00004026,0.00004275,0.00015
 670,0.00023786,-0.00011883,0.00015958,-0.00021303,0.00020278,-0.000193
 73,-0.00008086,-0.00002383,-0.00002044,-0.00002944,0.00000274,-0.00002
 084,0.00000766,-0.00001885,0.00001904,0.00004569,-0.00000778,-0.000002
 99,-0.00003130,-0.00093878,-0.00163754,-0.00065525,0.00108482,-0.00076
 811,0.00436186,0.02713298,-0.00899941,0.00676463,-0.00123887,0.0059229
 7,0.00285822,-0.02914681,-0.03750225,-0.00688780,-0.01674673,-0.001164
 40,-0.00697063,0.01965104,0.04446884,-0.00000561,0.00002638,0.00003122
 ,-0.00014000,-0.00009656,-0.00014595,0.00001773,0.00002587,0.00001184,
 0.00004778,-0.00009283,-0.00008471,-0.00006828,-0.00005635,0.00010228,
 -0.00015552,0.00017506,-0.00002780,-0.00000776,-0.00002966,0.00000377,
 0.00001305,-0.00000643,0.00001550,0.00003674,0.00001314,-0.00002508,-0
 .00001936,-0.00002363,-0.00003766,0.00266838,0.00421415,-0.00134832,-0
 .00121074,-0.00025132,-0.00310891,-0.01481022,0.00962407,0.00009755,0.
 02875424,-0.00180545,-0.00815991,-0.03300200,-0.00595506,-0.03821541,-
 0.01237449,-0.00599659,0.00175760,0.03010687,0.00106373,0.04904863,-0.
 00068567,-0.00471159,-0.00330834,0.00038782,0.00039244,0.00014764,0.00
 027645,0.00006308,0.00013094,-0.00238270,-0.00503755,-0.00511703,-0.00
 221430,-0.00079049,0.00235491,-0.00079136,0.00389987,-0.00082714,-0.00
 002840,-0.00006469,0.00001135,0.00011544,-0.00019938,0.00004585,0.0001
 6963,-0.00003568,-0.00018598,0.00002213,0.00000606,-0.00007502,0.00440
 345,0.00119423,0.00130159,-0.06328912,0.07325715,-0.03311666,-0.017075
 18,0.02588409,-0.00158988,0.00234995,-0.00099124,0.00263049,-0.0010628
 6,0.00127952,0.00454660,-0.00008786,0.00027454,-0.00012495,-0.00006615
 ,0.00048043,-0.00033988,0.07955679,-0.00075847,-0.00404027,0.00025064,
 -0.00023066,0.00058624,0.00039300,0.00003714,-0.00013960,-0.00014634,-
 0.00068655,-0.00258107,-0.00045531,-0.00219433,0.00066408,-0.00057904,
 0.00248465,0.00134229,-0.00121828,0.00006984,0.00012066,-0.00016823,-0
 .00034140,-0.00006437,-0.00041886,-0.00047518,0.00003550,0.00053268,0.
 00015870,-0.00002855,-0.00000248,0.00545351,-0.01349942,0.01242277,0.0
 6920969,-0.14801927,0.06541559,0.02028547,-0.02015111,-0.00449399,-0.0
 0039446,0.00270653,0.00213896,0.00203475,0.00165213,-0.00182788,0.0000
 6694,-0.00032637,0.00027617,0.00008485,-0.00016192,0.00005546,-0.09521
 329,0.18171030,-0.00044584,-0.00245274,-0.00253574,0.00032405,0.000146
 40,0.00005385,0.00018195,0.00005882,0.00017184,-0.00283041,-0.00392321
 ,-0.00454489,-0.00147530,-0.00131605,0.00146518,-0.00055811,0.00270037
 ,-0.00028488,-0.00003240,-0.00008837,0.00004902,0.00000756,-0.00016183
 ,-0.00000938,0.00005556,-0.00009029,-0.00023602,-0.00000588,0.00000322
 ,-0.00006329,-0.00817159,0.02214289,-0.00852478,-0.03349897,0.06850668
 ,-0.06122525,0.00912833,-0.01582945,0.00722622,0.00024053,0.00294721,-
 0.00192317,0.00356747,0.00038671,-0.00361373,0.00022046,-0.00016729,0.
 00039117,-0.00004434,-0.00042131,0.00020250,0.03333169,-0.07285234,0.0
 7368863,-0.00912280,-0.01880066,-0.01018605,0.00096254,0.00039567,0.00
 038136,0.00022473,0.00023151,0.00042691,0.00017312,-0.00387854,-0.0039
 6493,-0.00218521,-0.00150273,0.00494115,-0.00356565,0.00558052,-0.0008
 1256,-0.00002237,-0.00012793,0.00005848,0.00010014,-0.00007344,0.00005
 513,0.00042818,0.00000800,-0.00043310,0.00006119,-0.00000900,-0.000124
 45,-0.12909709,-0.02054551,0.10877289,0.00185696,0.00085727,-0.0005346
 4,0.00058898,0.00202913,-0.00053387,-0.02212765,0.00988010,0.01751284,
 -0.00127551,0.00231604,-0.00015926,0.00004006,0.00015190,-0.00000116,-
 0.00025232,-0.00008857,0.00057801,0.00066128,0.00042700,0.00011165,0.1
 6286920,-0.00991590,-0.01500990,-0.00815014,0.00056010,0.00052696,0.00
 036588,0.00014897,0.00014854,0.00031974,0.00018536,-0.00351514,-0.0029
 6873,-0.00217820,-0.00089652,0.00347296,-0.00275120,0.00240897,-0.0016
 5973,0.00002039,-0.00005472,0.00000328,0.00002459,0.00002881,-0.000035
 33,-0.00010076,-0.00021586,-0.00023725,0.00012634,-0.00001780,-0.00011
 311,-0.02444734,-0.02888340,0.04188582,-0.00958046,0.00319200,0.006425
 02,-0.00006541,0.00077807,0.00416702,0.02114060,-0.00395142,-0.0191996
 8,0.00344881,-0.00447730,0.00263871,0.00027800,0.00030561,-0.00027919,
 0.00004829,0.00010477,-0.00066915,0.00022543,0.00025248,0.00037652,0.0
 2297399,0.04926928,-0.00282403,-0.00978501,-0.00351211,0.00042757,0.00
 050958,0.00037620,0.00002144,0.00025624,0.00027752,0.00023624,-0.00369
 506,-0.00391675,-0.00220265,-0.00123850,0.00333793,-0.00196200,0.00348
 155,-0.00086984,0.00007561,-0.00002630,-0.00000113,0.00009248,0.000260
 72,0.00007915,-0.00030699,-0.00029986,0.00013231,0.00012701,-0.0001159
 0,0.00001563,0.09277176,0.02785561,-0.09440482,0.01791722,0.01215026,-
 0.02874643,-0.00050902,0.00303711,0.00027125,0.01111739,-0.00736544,-0
 .00269192,0.00105760,0.00026899,0.00078353,0.00003977,0.00002486,-0.00
 029072,0.00010043,-0.00001516,0.00015532,0.00017640,0.00098309,-0.0003
 7594,-0.11623077,-0.02632145,0.12920510,-0.01582977,0.02470101,0.00602
 769,-0.04020300,0.03455968,0.00987105,0.00314222,-0.00704522,-0.000388
 86,-0.00063980,-0.00109315,-0.00096086,-0.00125656,0.00006576,0.000649
 26,-0.00122017,0.00238397,-0.00149634,0.00001961,-0.00058282,0.0006889
 6,0.00016935,0.00014796,0.00006777,-0.00022848,0.00001320,-0.00001521,
 0.00462649,-0.00659276,-0.00418078,-0.00168381,0.00095294,0.00116932,0
 .00059126,0.00099338,-0.00068676,-0.00019225,-0.00007155,0.00019199,-0
 .00072840,-0.00063727,0.00000735,0.00015961,-0.00031268,-0.00136008,-0
 .00005394,-0.00003370,-0.00001573,0.00028994,-0.00004693,-0.00005019,-
 0.00012599,-0.00003510,-0.00004851,-0.00022335,-0.00011867,-0.00014154
 ,0.05294827,0.01439055,-0.00941401,-0.00020774,0.03342293,-0.19972864,
 -0.03912586,-0.00010093,-0.02490537,0.00590206,0.00036527,-0.00034890,
 0.00101816,0.00017421,0.00020878,-0.00047843,-0.00043214,-0.00084260,-
 0.00003539,-0.00023118,-0.00096422,0.00095732,0.00004864,-0.00007964,0
 .00001635,0.00004292,0.00005207,-0.00010575,-0.00067130,-0.00985070,-0
 .01013262,-0.00130411,0.00124133,-0.00060370,-0.00045001,-0.00006429,0
 .00100569,0.00078745,-0.00098387,-0.00029754,0.00166882,-0.00079885,0.
 00087990,-0.00047131,0.00062166,-0.00152074,-0.00002450,-0.00002031,-0
 .00003364,0.00006713,0.00011916,-0.00007289,0.00005179,-0.00001628,0.0
 0003503,0.00009345,-0.00001160,-0.00004250,-0.04727055,0.24520188,0.00
 012766,-0.00226610,0.00337743,0.01004141,-0.03967000,-0.04051990,0.000
 03641,0.01922606,0.00049877,-0.00004354,0.00003151,-0.00070179,-0.0003
 3452,0.00046378,-0.00013237,0.00096850,-0.00029489,-0.00063551,0.00009
 901,0.00118013,-0.00145769,0.00008508,0.00005466,0.00010670,-0.0000127
 2,0.00005591,0.00021365,0.00015100,-0.02070759,-0.00867313,-0.00181213
 ,0.00021989,-0.00109746,-0.00081715,0.00000600,0.00074536,0.00094750,-
 0.00067250,-0.00032435,0.00029393,-0.00030227,-0.00021697,-0.00120235,
 -0.00023061,-0.00192872,0.00009780,-0.00010331,-0.00007907,0.00020155,
 -0.00035230,-0.00040602,-0.00001109,-0.00008593,-0.00000347,0.00005200
 ,-0.00002389,0.00012652,-0.00905352,0.04277247,0.05074801,-0.00065951,
 -0.00077797,-0.00064319,0.00035442,-0.00111922,0.00757830,-0.04593152,
 0.02455633,0.04231691,-0.01765090,0.01704841,0.01890868,-0.00214274,-0
 .00044129,0.00200624,-0.00060557,0.00083675,-0.00067866,0.00427538,-0.
 00868417,-0.01038543,-0.00016743,0.00008243,-0.00005278,0.00003556,0.0
 0001966,0.00020957,0.00002811,-0.00019153,0.00018515,0.00010102,-0.000
 08527,0.00022786,-0.00053658,0.00006352,-0.00019688,0.00037591,0.00073
 553,0.00045118,-0.00007465,0.00023834,0.00003222,-0.000040