 Default is to use a total of   8 processors:
                                8 via shared-memory
                                1 via Linda
 Entering Link 1 = C:\G16W\l1.exe PID=     18600.
  
 Copyright (c) 1988-2019, Gaussian, Inc.  All Rights Reserved.
  
 This is part of the Gaussian(R) 16 program.  It is based on
 the Gaussian(R) 09 system (copyright 2009, Gaussian, Inc.),
 the Gaussian(R) 03 system (copyright 2003, Gaussian, Inc.),
 the Gaussian(R) 98 system (copyright 1998, Gaussian, Inc.),
 the Gaussian(R) 94 system (copyright 1995, Gaussian, Inc.),
 the Gaussian 92(TM) system (copyright 1992, Gaussian, Inc.),
 the Gaussian 90(TM) system (copyright 1990, Gaussian, Inc.),
 the Gaussian 88(TM) system (copyright 1988, Gaussian, Inc.),
 the Gaussian 86(TM) system (copyright 1986, Carnegie Mellon
 University), and the Gaussian 82(TM) system (copyright 1983,
 Carnegie Mellon University). Gaussian is a federally registered
 trademark of Gaussian, Inc.
  
 This software contains proprietary and confidential information,
 including trade secrets, belonging to Gaussian, Inc.
  
 This software is provided under written license and may be
 used, copied, transmitted, or stored only in accord with that
 written license.
  
 The following legend is applicable only to US Government
 contracts under FAR:
  
                    RESTRICTED RIGHTS LEGEND
  
 Use, reproduction and disclosure by the US Government is
 subject to restrictions as set forth in subparagraphs (a)
 and (c) of the Commercial Computer Software - Restricted
 Rights clause in FAR 52.227-19.
  
 Gaussian, Inc.
 340 Quinnipiac St., Bldg. 40, Wallingford CT 06492
  
  
 ---------------------------------------------------------------
 Warning -- This program may not be used in any manner that
 competes with the business of Gaussian, Inc. or will provide
 assistance to any competitor of Gaussian, Inc.  The licensee
 of this program is prohibited from giving any competitor of
 Gaussian, Inc. access to this program.  By using this program,
 the user acknowledges that Gaussian, Inc. is engaged in the
 business of creating and licensing software in the field of
 computational chemistry and represents and warrants to the
 licensee that it is not a competitor of Gaussian, Inc. and that
 it will not use this program in any manner prohibited above.
 ---------------------------------------------------------------
  

 Cite this work as:
 Gaussian 16, Revision C.01,
 M. J. Frisch, G. W. Trucks, H. B. Schlegel, G. E. Scuseria, 
 M. A. Robb, J. R. Cheeseman, G. Scalmani, V. Barone, 
 G. A. Petersson, H. Nakatsuji, X. Li, M. Caricato, A. V. Marenich, 
 J. Bloino, B. G. Janesko, R. Gomperts, B. Mennucci, H. P. Hratchian, 
 J. V. Ortiz, A. F. Izmaylov, J. L. Sonnenberg, D. Williams-Young, 
 F. Ding, F. Lipparini, F. Egidi, J. Goings, B. Peng, A. Petrone, 
 T. Henderson, D. Ranasinghe, V. G. Zakrzewski, J. Gao, N. Rega, 
 G. Zheng, W. Liang, M. Hada, M. Ehara, K. Toyota, R. Fukuda, 
 J. Hasegawa, M. Ishida, T. Nakajima, Y. Honda, O. Kitao, H. Nakai, 
 T. Vreven, K. Throssell, J. A. Montgomery, Jr., J. E. Peralta, 
 F. Ogliaro, M. J. Bearpark, J. J. Heyd, E. N. Brothers, K. N. Kudin, 
 V. N. Staroverov, T. A. Keith, R. Kobayashi, J. Normand, 
 K. Raghavachari, A. P. Rendell, J. C. Burant, S. S. Iyengar, 
 J. Tomasi, M. Cossi, J. M. Millam, M. Klene, C. Adamo, R. Cammi, 
 J. W. Ochterski, R. L. Martin, K. Morokuma, O. Farkas, 
 J. B. Foresman, and D. J. Fox, Gaussian, Inc., Wallingford CT, 2019.
 
 ******************************************
 Gaussian 16:  EM64W-G16RevC.01 30-May-2019
                15-Nov-2025 
 ******************************************
 %chk=C:\Users\al6323\OneDrive - Imperial College London\Desktop\TSR20251115\Exer
 cise 2\TS_Berny_PM6_endo.chk
 Default route: MaxDisk=10GB
 ----------------------------------------------------------------------
 # opt=(calcfc,tight,ts,maxcycles=200,maxstep=4,noeigen) freq pm6 nosym
 m geom=connectivity scf=(xqc,tight)
 ----------------------------------------------------------------------
 1/5=1,6=200,7=10,8=4,10=4,11=1,18=20,26=1,38=1,57=2/1,3;
 2/9=110,12=2,15=1,17=6,18=5,40=1/2;
 3/5=2,25=1,41=3900000,71=2,140=1/1,2,3;
 4/35=1/1;
 5/5=2,8=3,13=1,32=2,35=1,38=5/2,8;
 8/6=4,10=90,11=11/1;
 11/6=1,8=1,9=11,15=111,16=1,31=1/1,2,10;
 10/6=1,13=1,31=1/2;
 6/7=2,8=2,9=2,10=2,28=1/1;
 7/10=1,25=1,30=1/1,2,3,16;
 1/5=1,6=200,7=10,8=4,10=4,11=1,18=20,26=1/3(2);
 2/9=110,15=1/2;
 99//99;
 2/9=110,15=1/2;
 3/5=2,25=1,41=3900000,71=1,135=20/1,2,3;
 4/5=5,16=3,35=1/1;
 5/5=2,8=3,13=1,32=2,35=1,38=5/2,8;
 7/30=1/1,2,3,16;
 1/5=1,6=200,7=10,8=4,11=1,18=20,26=1/3(-5);
 2/9=110,15=1/2;
 6/7=2,8=2,9=2,10=2,19=2,28=1/1;
 99/9=1/99;
 ------------------
 TS(Berny)_PM6_endo
 ------------------
 Symbolic Z-matrix:
 Charge =  0 Multiplicity = 1
 C                    -0.2383    0.60762   0.48318 
 C                     0.7578    1.61806   1.07491 
 C                     0.59155   2.54698  -0.17954 
 C                    -0.40868   1.55969  -0.80256 
 C                    -1.86826   1.62606  -0.40127 
 C                    -1.72475   0.82412   0.68173 
 H                     0.16584   3.53133   0.04392 
 H                    -2.6637    2.15124  -0.87085 
 H                    -2.35705   0.4377    1.44326 
 H                     0.42723   2.071     2.01601 
 C                     0.53312  -0.99152  -0.81591 
 C                     0.36491  -0.05147  -2.08541 
 O                    -0.8156   -0.24134  -2.52902 
 O                    -0.5696   -1.61594  -0.67272 
 C                    -1.46487  -1.27554  -1.75541 
 H                    -2.40864  -0.89084  -1.34546 
 H                    -1.54222  -2.1607   -2.40062 
 H                     1.21803   0.18096  -2.72828 
 H                     1.50505  -1.42295  -0.56225 
 H                     1.77022   1.22995   1.22092 
 H                     1.5079    2.6957   -0.75844 
 

 GradGradGradGradGradGradGradGradGradGradGradGradGradGradGradGradGradGrad
 Berny optimization.
 Initialization pass.
                           ----------------------------
                           !    Initial Parameters    !
                           ! (Angstroms and Degrees)  !
 --------------------------                            --------------------------
 ! Name  Definition              Value          Derivative Info.                !
 --------------------------------------------------------------------------------
 ! R1    R(1,2)                  1.5373         calculate D2E/DX2 analytically  !
 ! R2    R(1,6)                  1.5152         calculate D2E/DX2 analytically  !
 ! R3    R(1,11)                 2.2            calculate D2E/DX2 analytically  !
 ! R4    R(2,3)                  1.5698         calculate D2E/DX2 analytically  !
 ! R5    R(2,10)                 1.0955         calculate D2E/DX2 analytically  !
 ! R6    R(2,20)                 1.0941         calculate D2E/DX2 analytically  !
 ! R7    R(3,4)                  1.5373         calculate D2E/DX2 analytically  !
 ! R8    R(3,7)                  1.0955         calculate D2E/DX2 analytically  !
 ! R9    R(3,21)                 1.0941         calculate D2E/DX2 analytically  !
 ! R10   R(4,5)                  1.5152         calculate D2E/DX2 analytically  !
 ! R11   R(4,12)                 2.2            calculate D2E/DX2 analytically  !
 ! R12   R(5,6)                  1.3552         calculate D2E/DX2 analytically  !
 ! R13   R(5,8)                  1.0626         calculate D2E/DX2 analytically  !
 ! R14   R(6,9)                  1.0626         calculate D2E/DX2 analytically  !
 ! R15   R(11,12)                1.5886         calculate D2E/DX2 analytically  !
 ! R16   R(11,14)                1.2753         calculate D2E/DX2 analytically  !
 ! R17   R(11,19)                1.0932         calculate D2E/DX2 analytically  !
 ! R18   R(12,13)                1.2753         calculate D2E/DX2 analytically  !
 ! R19   R(12,18)                1.0932         calculate D2E/DX2 analytically  !
 ! R20   R(13,15)                1.4455         calculate D2E/DX2 analytically  !
 ! R21   R(14,15)                1.4455         calculate D2E/DX2 analytically  !
 ! R22   R(15,16)                1.0985         calculate D2E/DX2 analytically  !
 ! R23   R(15,17)                1.0981         calculate D2E/DX2 analytically  !
 ! A1    A(2,1,6)              119.4265         calculate D2E/DX2 analytically  !
 ! A2    A(2,1,11)             118.5448         calculate D2E/DX2 analytically  !
 ! A3    A(6,1,11)             121.6838         calculate D2E/DX2 analytically  !
 ! A4    A(1,2,3)               90.7293         calculate D2E/DX2 analytically  !
 ! A5    A(1,2,10)             114.0096         calculate D2E/DX2 analytically  !
 ! A6    A(1,2,20)             114.6962         calculate D2E/DX2 analytically  !
 ! A7    A(3,2,10)             114.1975         calculate D2E/DX2 analytically  !
 ! A8    A(3,2,20)             114.4928         calculate D2E/DX2 analytically  !
 ! A9    A(10,2,20)            108.1359         calculate D2E/DX2 analytically  !
 ! A10   A(2,3,4)               90.7294         calculate D2E/DX2 analytically  !
 ! A11   A(2,3,7)              114.1969         calculate D2E/DX2 analytically  !
 ! A12   A(2,3,21)             114.4936         calculate D2E/DX2 analytically  !
 ! A13   A(4,3,7)              114.0089         calculate D2E/DX2 analytically  !
 ! A14   A(4,3,21)             114.6967         calculate D2E/DX2 analytically  !
 ! A15   A(7,3,21)             108.1358         calculate D2E/DX2 analytically  !
 ! A16   A(3,4,5)              119.4258         calculate D2E/DX2 analytically  !
 ! A17   A(3,4,12)             118.5453         calculate D2E/DX2 analytically  !
 ! A18   A(5,4,12)             121.684          calculate D2E/DX2 analytically  !
 ! A19   A(4,5,6)               94.8024         calculate D2E/DX2 analytically  !
 ! A20   A(4,5,8)              128.7358         calculate D2E/DX2 analytically  !
 ! A21   A(6,5,8)              136.4617         calculate D2E/DX2 analytically  !
 ! A22   A(1,6,5)               94.8023         calculate D2E/DX2 analytically  !
 ! A23   A(1,6,9)              128.7356         calculate D2E/DX2 analytically  !
 ! A24   A(5,6,9)              136.462          calculate D2E/DX2 analytically  !
 ! A25   A(1,11,12)             90.2647         calculate D2E/DX2 analytically  !
 ! A26   A(1,11,14)             89.2209         calculate D2E/DX2 analytically  !
 ! A27   A(1,11,19)            117.4896         calculate D2E/DX2 analytically  !
 ! A28   A(12,11,14)           106.7327         calculate D2E/DX2 analytically  !
 ! A29   A(12,11,19)           120.8707         calculate D2E/DX2 analytically  !
 ! A30   A(14,11,19)           123.3299         calculate D2E/DX2 analytically  !
 ! A31   A(4,12,11)             90.2645         calculate D2E/DX2 analytically  !
 ! A32   A(4,12,13)             89.2194         calculate D2E/DX2 analytically  !
 ! A33   A(4,12,18)            117.4908         calculate D2E/DX2 analytically  !
 ! A34   A(11,12,13)           106.7317         calculate D2E/DX2 analytically  !
 ! A35   A(11,12,18)           120.8714         calculate D2E/DX2 analytically  !
 ! A36   A(13,12,18)           123.3302         calculate D2E/DX2 analytically  !
 ! A37   A(12,13,15)           109.6404         calculate D2E/DX2 analytically  !
 ! A38   A(11,14,15)           109.6408         calculate D2E/DX2 analytically  !
 ! A39   A(13,15,14)           106.9262         calculate D2E/DX2 analytically  !
 ! A40   A(13,15,16)           109.5756         calculate D2E/DX2 analytically  !
 ! A41   A(13,15,17)           107.0913         calculate D2E/DX2 analytically  !
 ! A42   A(14,15,16)           109.5754         calculate D2E/DX2 analytically  !
 ! A43   A(14,15,17)           107.091          calculate D2E/DX2 analytically  !
 ! A44   A(16,15,17)           116.1704         calculate D2E/DX2 analytically  !
 ! D1    D(6,1,2,3)            -84.0695         calculate D2E/DX2 analytically  !
 ! D2    D(6,1,2,10)            32.9576         calculate D2E/DX2 analytically  !
 ! D3    D(6,1,2,20)           158.4009         calculate D2E/DX2 analytically  !
 ! D4    D(11,1,2,3)            89.3026         calculate D2E/DX2 analytically  !
 ! D5    D(11,1,2,10)         -153.6702         calculate D2E/DX2 analytically  !
 ! D6    D(11,1,2,20)          -28.2269         calculate D2E/DX2 analytically  !
 ! D7    D(2,1,6,5)             86.4422         calculate D2E/DX2 analytically  !
 ! D8    D(2,1,6,9)            -93.4859         calculate D2E/DX2 analytically  !
 ! D9    D(11,1,6,5)           -86.7148         calculate D2E/DX2 analytically  !
 ! D10   D(11,1,6,9)            93.357          calculate D2E/DX2 analytically  !
 ! D11   D(2,1,11,12)          -89.0253         calculate D2E/DX2 analytically  !
 ! D12   D(2,1,11,14)          164.244          calculate D2E/DX2 analytically  !
 ! D13   D(2,1,11,19)           36.4828         calculate D2E/DX2 analytically  !
 ! D14   D(6,1,11,12)           84.1901         calculate D2E/DX2 analytically  !
 ! D15   D(6,1,11,14)          -22.5405         calculate D2E/DX2 analytically  !
 ! D16   D(6,1,11,19)         -150.3018         calculate D2E/DX2 analytically  !
 ! D17   D(1,2,3,4)             -0.0008         calculate D2E/DX2 analytically  !
 ! D18   D(1,2,3,7)            116.8601         calculate D2E/DX2 analytically  !
 ! D19   D(1,2,3,21)          -117.7091         calculate D2E/DX2 analytically  !
 ! D20   D(10,2,3,4)          -116.8626         calculate D2E/DX2 analytically  !
 ! D21   D(10,2,3,7)            -0.0017         calculate D2E/DX2 analytically  !
 ! D22   D(10,2,3,21)          125.4291         calculate D2E/DX2 analytically  !
 ! D23   D(20,2,3,4)           117.7067         calculate D2E/DX2 analytically  !
 ! D24   D(20,2,3,7)          -125.4324         calculate D2E/DX2 analytically  !
 ! D25   D(20,2,3,21)           -0.0016         calculate D2E/DX2 analytically  !
 ! D26   D(2,3,4,5)             84.0711         calculate D2E/DX2 analytically  !
 ! D27   D(2,3,4,12)           -89.3013         calculate D2E/DX2 analytically  !
 ! D28   D(7,3,4,5)            -32.9553         calculate D2E/DX2 analytically  !
 ! D29   D(7,3,4,12)           153.6723         calculate D2E/DX2 analytically  !
 ! D30   D(21,3,4,5)          -158.3983         calculate D2E/DX2 analytically  !
 ! D31   D(21,3,4,12)           28.2293         calculate D2E/DX2 analytically  !
 ! D32   D(3,4,5,6)            -86.442          calculate D2E/DX2 analytically  !
 ! D33   D(3,4,5,8)             93.4874         calculate D2E/DX2 analytically  !
 ! D34   D(12,4,5,6)            86.7153         calculate D2E/DX2 analytically  !
 ! D35   D(12,4,5,8)           -93.3552         calculate D2E/DX2 analytically  !
 ! D36   D(3,4,12,11)           89.0262         calculate D2E/DX2 analytically  !
 ! D37   D(3,4,12,13)         -164.2442         calculate D2E/DX2 analytically  !
 ! D38   D(3,4,12,18)          -36.4831         calculate D2E/DX2 analytically  !
 ! D39   D(5,4,12,11)          -84.1895         calculate D2E/DX2 analytically  !
 ! D40   D(5,4,12,13)           22.5402         calculate D2E/DX2 analytically  !
 ! D41   D(5,4,12,18)          150.3013         calculate D2E/DX2 analytically  !
 ! D42   D(4,5,6,1)             -0.0001         calculate D2E/DX2 analytically  !
 ! D43   D(4,5,6,9)            179.9185         calculate D2E/DX2 analytically  !
 ! D44   D(8,5,6,1)           -179.9202         calculate D2E/DX2 analytically  !
 ! D45   D(8,5,6,9)             -0.0016         calculate D2E/DX2 analytically  !
 ! D46   D(1,11,12,4)           -0.0003         calculate D2E/DX2 analytically  !
 ! D47   D(1,11,12,13)         -89.2646         calculate D2E/DX2 analytically  !
 ! D48   D(1,11,12,18)         122.7219         calculate D2E/DX2 analytically  !
 ! D49   D(14,11,12,4)          89.2658         calculate D2E/DX2 analytically  !
 ! D50   D(14,11,12,13)          0.0014         calculate D2E/DX2 analytically  !
 ! D51   D(14,11,12,18)       -148.0121         calculate D2E/DX2 analytically  !
 ! D52   D(19,11,12,4)        -122.7209         calculate D2E/DX2 analytically  !
 ! D53   D(19,11,12,13)        148.0147         calculate D2E/DX2 analytically  !
 ! D54   D(19,11,12,18)          0.0013         calculate D2E/DX2 analytically  !
 ! D55   D(1,11,14,15)          93.5617         calculate D2E/DX2 analytically  !
 ! D56   D(12,11,14,15)          3.5195         calculate D2E/DX2 analytically  !
 ! D57   D(19,11,14,15)       -143.5117         calculate D2E/DX2 analytically  !
 ! D58   D(4,12,13,15)         -93.5631         calculate D2E/DX2 analytically  !
 ! D59   D(11,12,13,15)         -3.5217         calculate D2E/DX2 analytically  !
 ! D60   D(18,12,13,15)        143.5099         calculate D2E/DX2 analytically  !
 ! D61   D(12,13,15,14)          5.6694         calculate D2E/DX2 analytically  !
 ! D62   D(12,13,15,16)        124.3495         calculate D2E/DX2 analytically  !
 ! D63   D(12,13,15,17)       -108.8476         calculate D2E/DX2 analytically  !
 ! D64   D(11,14,15,13)         -5.6684         calculate D2E/DX2 analytically  !
 ! D65   D(11,14,15,16)       -124.3487         calculate D2E/DX2 analytically  !
 ! D66   D(11,14,15,17)        108.8488         calculate D2E/DX2 analytically  !
 --------------------------------------------------------------------------------
 Trust Radius=4.00D-02 FncErr=1.00D-07 GrdErr=1.00D-07 EigMax=2.50D+02 EigMin=1.00D-04
 Number of steps in this run=    126 maximum allowed number of steps=    126.
 Search for a saddle point of order  1.
 GradGradGradGradGradGradGradGradGradGradGradGradGradGradGradGradGradGrad

                          Input orientation:                          
 ---------------------------------------------------------------------
 Center     Atomic      Atomic             Coordinates (Angstroms)
 Number     Number       Type             X           Y           Z
 ---------------------------------------------------------------------
      1          6           0       -0.238304    0.607625    0.483178
      2          6           0        0.757803    1.618062    1.074910
      3          6           0        0.591555    2.546981   -0.179536
      4          6           0       -0.408681    1.559694   -0.802555
      5          6           0       -1.868262    1.626057   -0.401267
      6          6           0       -1.724752    0.824116    0.681726
      7          1           0        0.165840    3.531330    0.043917
      8          1           0       -2.663700    2.151238   -0.870847
      9          1           0       -2.357045    0.437701    1.443257
     10          1           0        0.427226    2.070998    2.016012
     11          6           0        0.533123   -0.991520   -0.815914
     12          6           0        0.364909   -0.051470   -2.085407
     13          8           0       -0.815605   -0.241342   -2.529021
     14          8           0       -0.569596   -1.615941   -0.672720
     15          6           0       -1.464866   -1.275538   -1.755407
     16          1           0       -2.408637   -0.890844   -1.345463
     17          1           0       -1.542218   -2.160703   -2.400619
     18          1           0        1.218025    0.180956   -2.728276
     19          1           0        1.505045   -1.422948   -0.562247
     20          1           0        1.770224    1.229948    1.220918
     21          1           0        1.507903    2.695705   -0.758444
 ---------------------------------------------------------------------
                    Distance matrix (angstroms):
                    1          2          3          4          5
     1  C    0.000000
     2  C    1.537323   0.000000
     3  C    2.211099   1.569766   0.000000
     4  C    1.608905   2.211101   1.537322   0.000000
     5  C    2.115705   3.012537   2.635899   1.515194   0.000000
     6  C    1.515195   2.635910   3.012526   2.115705   1.355204
     7  H    2.984013   2.252546   1.095493   2.221246   2.822379
     8  H    3.177840   3.972019   3.351299   2.332316   1.062564
     9  H    2.332314   3.351300   3.971997   3.177840   2.247970
    10  H    2.221255   1.095493   2.252553   2.984040   3.363104
    11  C    2.200000   3.230420   3.595745   2.719534   3.576351
    12  C    2.719540   3.595735   3.230428   2.200000   3.261514
    13  O    3.182352   4.349864   3.908315   2.527846   3.020365
    14  O    2.527864   3.908321   4.349876   3.182359   3.502965
    15  C    3.172068   4.617778   4.617780   3.172065   3.227333
    16  H    3.209311   4.709475   4.709477   3.209316   2.741952
    17  H    4.204773   5.625697   5.625699   4.204768   4.294562
    18  H    3.551954   4.091614   3.533641   2.873237   4.126555
    19  H    2.873222   3.533610   4.091610   3.551937   4.549895
    20  H    2.228393   1.094050   2.255018   2.991789   4.003369
    21  H    2.991813   2.255028   1.094050   2.228398   3.559524
                    6          7          8          9         10
     6  C    0.000000
     7  H    3.363056   0.000000
     8  H    2.247968   3.278375   0.000000
     9  H    1.062564   4.230088   2.895743   0.000000
    10  H    2.822417   2.467803   4.230155   3.278395   0.000000
    11  C    3.261511   4.618481   4.483259   3.936953   4.172533
    12  C    3.576361   4.172541   3.936946   4.483279   4.618484
    13  O    3.502949   4.670792   3.448106   4.314642   5.248702
    14  O    3.020395   5.248698   4.314644   3.448156   4.670809
    15  C    3.227337   5.385420   3.736634   3.736659   5.385435
    16  H    2.741949   5.302257   3.089430   3.089442   5.302277
    17  H    4.294569   6.425921   4.710706   4.710736   6.425935
    18  H    4.549913   4.474053   4.732847   5.499885   5.167774
    19  H    4.126543   5.167763   5.499861   4.732843   4.474011
    20  H    3.559534   3.042324   4.988380   4.208496   1.772903
    21  H    4.003372   1.772902   4.208485   4.988376   3.042323
                   11         12         13         14         15
    11  C    0.000000
    12  C    1.588586   0.000000
    13  O    2.305769   1.275326   0.000000
    14  O    1.275302   2.305765   2.322906   0.000000
    15  C    2.226044   2.226055   1.445538   1.445542   0.000000
    16  H    2.990737   2.990756   2.088160   2.088161   1.098520
    17  H    2.861000   2.861006   2.056307   2.056306   1.098089
    18  H    2.345404   1.093211   2.086549   3.263393   3.204022
    19  H    1.093211   2.345396   3.263405   2.086525   3.204019
    20  H    3.257917   3.814280   4.786779   4.142428   5.059820
    21  H    3.814331   3.257950   4.142448   4.786819   5.059848
                   16         17         18         19         20
    16  H    0.000000
    17  H    1.864559   0.000000
    18  H    4.026612   3.634510   0.000000
    19  H    4.026595   3.634516   2.710456   0.000000
    20  H    5.342934   5.965260   4.123280   3.207469   0.000000
    21  H    5.342959   5.965289   3.207527   4.123325   2.476919
                   21
    21  H    0.000000
 Symmetry turned off by external request.
 Stoichiometry    C9H10O2
 Framework group  C1[X(C9H10O2)]
 Deg. of freedom    57
 Full point group                 C1      NOp   1
 Rotational constants (GHZ):           2.0497864           1.0604783           1.0195837
 Standard basis: VSTO-6G (5D, 7F)
    54 basis functions,   324 primitive gaussians,    54 cartesian basis functions
    29 alpha electrons       29 beta electrons
       nuclear repulsion energy       360.5732334067 Hartrees.
 Integral buffers will be    131072 words long.
 Regular integral format.
 Two-electron integral symmetry is turned off.
 Do NDO integrals.
 One-electron integrals computed using PRISM.
 NBasis=    54 RedAO= F EigKep=  0.00D+00  NBF=    54
 NBsUse=    54 1.00D-04 EigRej=  0.00D+00 NBFU=    54
 Simple Huckel Guess.
 Keep J ints in memory in canonical form, NReq=867381.
 Overlap will be assumed to be unity.
 Requested convergence on RMS density matrix=1.00D-08 within  32 cycles.
 Requested convergence on MAX density matrix=1.00D-06.
 Requested convergence on             energy=1.00D-06.
 No special actions if energy rises.
 SCF Done:  E(RPM6) =  0.228065064707     A.U. after   18 cycles
            NFock= 17  Conv=0.93D-08     -V/T= 1.0021
 QCSCF skips out because SCF is already converged.
 Range of M.O.s used for correlation:     1    54
 NBasis=    54 NAE=    29 NBE=    29 NFC=     0 NFV=     0
 NROrb=     54 NOA=    29 NOB=    29 NVA=    25 NVB=    25
 Symmetrizing basis deriv contribution to polar:
 IMax=3 JMax=2 DiffMx= 0.00D+00
 G2DrvN: will do    22 centers at a time, making    1 passes.
 Calling FoFCou, ICntrl=  3107 FMM=F I1Cent=   0 AccDes= 0.00D+00.
 End of G2Drv F.D. properties file   721 does not exist.
 End of G2Drv F.D. properties file   722 does not exist.
 End of G2Drv F.D. properties file   788 does not exist.
          IDoAtm=111111111111111111111
          Differentiating once with respect to nuclear coordinates.
          Electric field/nuclear overlap derivatives assumed to be zero.
 Keep J ints in memory in canonical form, NReq=869523.
          There are    66 degrees of freedom in the 1st order CPHF.  IDoFFX=5 NUNeed=    66.
 LinEq1:  Iter=  0 NonCon=    63 RMS=1.26D-02 Max=9.41D-02 NDo=    63
 AX will form    66 AO Fock derivatives at one time.
 LinEq1:  Iter=  1 NonCon=    63 RMS=2.05D-03 Max=2.96D-02 NDo=    66
 LinEq1:  Iter=  2 NonCon=    63 RMS=6.30D-04 Max=9.46D-03 NDo=    66
 LinEq1:  Iter=  3 NonCon=    63 RMS=2.07D-04 Max=2.52D-03 NDo=    66
 LinEq1:  Iter=  4 NonCon=    63 RMS=4.25D-05 Max=4.99D-04 NDo=    66
 LinEq1:  Iter=  5 NonCon=    63 RMS=9.95D-06 Max=1.20D-04 NDo=    66
 LinEq1:  Iter=  6 NonCon=    63 RMS=2.78D-06 Max=3.95D-05 NDo=    66
 LinEq1:  Iter=  7 NonCon=    63 RMS=6.92D-07 Max=7.09D-06 NDo=    66
 LinEq1:  Iter=  8 NonCon=    58 RMS=1.60D-07 Max=1.44D-06 NDo=    66
 LinEq1:  Iter=  9 NonCon=    31 RMS=3.03D-08 Max=2.44D-07 NDo=    66
 LinEq1:  Iter= 10 NonCon=     0 RMS=5.39D-09 Max=4.01D-08 NDo=    31
 Linear equations converged to 1.000D-08 1.000D-07 after    10 iterations.
 End of Minotr F.D. properties file   721 does not exist.
 End of Minotr F.D. properties file   722 does not exist.
 End of Minotr F.D. properties file   788 does not exist.

 **********************************************************************

            Population analysis using the SCF Density.

 **********************************************************************

 Alpha  occ. eigenvalues --   -1.23847  -1.13856  -1.10820  -0.97894  -0.95907
 Alpha  occ. eigenvalues --   -0.87042  -0.83722  -0.80814  -0.74588  -0.72893
 Alpha  occ. eigenvalues --   -0.67412  -0.65066  -0.60231  -0.58711  -0.57538
 Alpha  occ. eigenvalues --   -0.55261  -0.54956  -0.52014  -0.51535  -0.50177
 Alpha  occ. eigenvalues --   -0.48411  -0.45625  -0.45229  -0.44112  -0.40482
 Alpha  occ. eigenvalues --   -0.40038  -0.34946  -0.29040  -0.28660
 Alpha virt. eigenvalues --   -0.00362   0.01246   0.04443   0.06511   0.06813
 Alpha virt. eigenvalues --    0.11270   0.13519   0.13658   0.15056   0.15991
 Alpha virt. eigenvalues --    0.16518   0.17090   0.17128   0.17879   0.17959
 Alpha virt. eigenvalues --    0.19135   0.19589   0.21117   0.21491   0.22190
 Alpha virt. eigenvalues --    0.23487   0.23930   0.24332   0.24444   0.24740
          Condensed to atoms (all electrons):
               1          2          3          4          5          6
     1  C    4.059376   0.000000   0.000000   0.000000   0.000000   0.000000
     2  C    0.000000   4.284741   0.000000   0.000000   0.000000   0.000000
     3  C    0.000000   0.000000   4.284748   0.000000   0.000000   0.000000
     4  C    0.000000   0.000000   0.000000   4.059341   0.000000   0.000000
     5  C    0.000000   0.000000   0.000000   0.000000   4.177089   0.000000
     6  C    0.000000   0.000000   0.000000   0.000000   0.000000   4.177077
     7  H    0.000000   0.000000   0.000000   0.000000   0.000000   0.000000
     8  H    0.000000   0.000000   0.000000   0.000000   0.000000   0.000000
     9  H    0.000000   0.000000   0.000000   0.000000   0.000000   0.000000
    10  H    0.000000   0.000000   0.000000   0.000000   0.000000   0.000000
    11  C    0.000000   0.000000   0.000000   0.000000   0.000000   0.000000
    12  C    0.000000   0.000000   0.000000   0.000000   0.000000   0.000000
    13  O    0.000000   0.000000   0.000000   0.000000   0.000000   0.000000
    14  O    0.000000   0.000000   0.000000   0.000000   0.000000   0.000000
    15  C    0.000000   0.000000   0.000000   0.000000   0.000000   0.000000
    16  H    0.000000   0.000000   0.000000   0.000000   0.000000   0.000000
    17  H    0.000000   0.000000   0.000000   0.000000   0.000000   0.000000
    18  H    0.000000   0.000000   0.000000   0.000000   0.000000   0.000000
    19  H    0.000000   0.000000   0.000000   0.000000   0.000000   0.000000
    20  H    0.000000   0.000000   0.000000   0.000000   0.000000   0.000000
    21  H    0.000000   0.000000   0.000000   0.000000   0.000000   0.000000
               7          8          9         10         11         12
     1  C    0.000000   0.000000   0.000000   0.000000   0.000000   0.000000
     2  C    0.000000   0.000000   0.000000   0.000000   0.000000   0.000000
     3  C    0.000000   0.000000   0.000000   0.000000   0.000000   0.000000
     4  C    0.000000   0.000000   0.000000   0.000000   0.000000   0.000000
     5  C    0.000000   0.000000   0.000000   0.000000   0.000000   0.000000
     6  C    0.000000   0.000000   0.000000   0.000000   0.000000   0.000000
     7  H    0.862479   0.000000   0.000000   0.000000   0.000000   0.000000
     8  H    0.000000   0.849942   0.000000   0.000000   0.000000   0.000000
     9  H    0.000000   0.000000   0.849943   0.000000   0.000000   0.000000
    10  H    0.000000   0.000000   0.000000   0.862481   0.000000   0.000000
    11  C    0.000000   0.000000   0.000000   0.000000   3.945332   0.000000
    12  C    0.000000   0.000000   0.000000   0.000000   0.000000   3.945358
    13  O    0.000000   0.000000   0.000000   0.000000   0.000000   0.000000
    14  O    0.000000   0.000000   0.000000   0.000000   0.000000   0.000000
    15  C    0.000000   0.000000   0.000000   0.000000   0.000000   0.000000
    16  H    0.000000   0.000000   0.000000   0.000000   0.000000   0.000000
    17  H    0.000000   0.000000   0.000000   0.000000   0.000000   0.000000
    18  H    0.000000   0.000000   0.000000   0.000000   0.000000   0.000000
    19  H    0.000000   0.000000   0.000000   0.000000   0.000000   0.000000
    20  H    0.000000   0.000000   0.000000   0.000000   0.000000   0.000000
    21  H    0.000000   0.000000   0.000000   0.000000   0.000000   0.000000
              13         14         15         16         17         18
     1  C    0.000000   0.000000   0.000000   0.000000   0.000000   0.000000
     2  C    0.000000   0.000000   0.000000   0.000000   0.000000   0.000000
     3  C    0.000000   0.000000   0.000000   0.000000   0.000000   0.000000
     4  C    0.000000   0.000000   0.000000   0.000000   0.000000   0.000000
     5  C    0.000000   0.000000   0.000000   0.000000   0.000000   0.000000
     6  C    0.000000   0.000000   0.000000   0.000000   0.000000   0.000000
     7  H    0.000000   0.000000   0.000000   0.000000   0.000000   0.000000
     8  H    0.000000   0.000000   0.000000   0.000000   0.000000   0.000000
     9  H    0.000000   0.000000   0.000000   0.000000   0.000000   0.000000
    10  H    0.000000   0.000000   0.000000   0.000000   0.000000   0.000000
    11  C    0.000000   0.000000   0.000000   0.000000   0.000000   0.000000
    12  C    0.000000   0.000000   0.000000   0.000000   0.000000   0.000000
    13  O    6.364875   0.000000   0.000000   0.000000   0.000000   0.000000
    14  O    0.000000   6.364866   0.000000   0.000000   0.000000   0.000000
    15  C    0.000000   0.000000   3.801136   0.000000   0.000000   0.000000
    16  H    0.000000   0.000000   0.000000   0.843371   0.000000   0.000000
    17  H    0.000000   0.000000   0.000000   0.000000   0.876457   0.000000
    18  H    0.000000   0.000000   0.000000   0.000000   0.000000   0.833925
    19  H    0.000000   0.000000   0.000000   0.000000   0.000000   0.000000
    20  H    0.000000   0.000000   0.000000   0.000000   0.000000   0.000000
    21  H    0.000000   0.000000   0.000000   0.000000   0.000000   0.000000
              19         20         21
     1  C    0.000000   0.000000   0.000000
     2  C    0.000000   0.000000   0.000000
     3  C    0.000000   0.000000   0.000000
     4  C    0.000000   0.000000   0.000000
     5  C    0.000000   0.000000   0.000000
     6  C    0.000000   0.000000   0.000000
     7  H    0.000000   0.000000   0.000000
     8  H    0.000000   0.000000   0.000000
     9  H    0.000000   0.000000   0.000000
    10  H    0.000000   0.000000   0.000000
    11  C    0.000000   0.000000   0.000000
    12  C    0.000000   0.000000   0.000000
    13  O    0.000000   0.000000   0.000000
    14  O    0.000000   0.000000   0.000000
    15  C    0.000000   0.000000   0.000000
    16  H    0.000000   0.000000   0.000000
    17  H    0.000000   0.000000   0.000000
    18  H    0.000000   0.000000   0.000000
    19  H    0.833924   0.000000   0.000000
    20  H    0.000000   0.861771   0.000000
    21  H    0.000000   0.000000   0.861770
 Mulliken charges:
               1
     1  C   -0.059376
     2  C   -0.284741
     3  C   -0.284748
     4  C   -0.059341
     5  C   -0.177089
     6  C   -0.177077
     7  H    0.137521
     8  H    0.150058
     9  H    0.150057
    10  H    0.137519
    11  C    0.054668
    12  C    0.054642
    13  O   -0.364875
    14  O   -0.364866
    15  C    0.198864
    16  H    0.156629
    17  H    0.123543
    18  H    0.166075
    19  H    0.166076
    20  H    0.138229
    21  H    0.138230
 Sum of Mulliken charges =   0.00000
 Mulliken charges with hydrogens summed into heavy atoms:
               1
     1  C   -0.059376
     2  C   -0.008992
     3  C   -0.008997
     4  C   -0.059341
     5  C   -0.027031
     6  C   -0.027019
    11  C    0.220743
    12  C    0.220717
    13  O   -0.364875
    14  O   -0.364866
    15  C    0.479036
 APT charges:
               1
     1  C   -0.059376
     2  C   -0.284741
     3  C   -0.284748
     4  C   -0.059341
     5  C   -0.177089
     6  C   -0.177077
     7  H    0.137521
     8  H    0.150058
     9  H    0.150057
    10  H    0.137519
    11  C    0.054668
    12  C    0.054642
    13  O   -0.364875
    14  O   -0.364866
    15  C    0.198864
    16  H    0.156629
    17  H    0.123543
    18  H    0.166075
    19  H    0.166076
    20  H    0.138229
    21  H    0.138230
 Sum of APT charges =   0.00000
 APT charges with hydrogens summed into heavy atoms:
               1
     1  C   -0.059376
     2  C   -0.008992
     3  C   -0.008997
     4  C   -0.059341
     5  C   -0.027031
     6  C   -0.027019
    11  C    0.220743
    12  C    0.220717
    13  O   -0.364875
    14  O   -0.364866
    15  C    0.479036
 Charge=              0.0000 electrons
 Dipole moment (field-independent basis, Debye):
    X=              0.5634    Y=             -1.1293    Z=             -0.9109  Tot=              1.5564
 N-N= 3.605732334067D+02 E-N=-5.754479015787D+02  KE=-1.078259423642D+02
  Exact polarizability:       0.000       0.000       0.000       0.000       0.000       0.000
 Approx polarizability:      64.332     -14.045      86.929     -10.076      16.780      80.543
 Calling FoFJK, ICntrl=    100127 FMM=F ISym2X=0 I1Cent= 0 IOpClX= 0 NMat=1 NMatS=1 NMatT=0.
 -------------------------------------------------------------------
 Center     Atomic                   Forces (Hartrees/Bohr)
 Number     Number              X              Y              Z
 -------------------------------------------------------------------
      1        6           0.015785051    0.005116999   -0.042210142
      2        6          -0.004517267   -0.013364189   -0.004588792
      3        6          -0.005313370   -0.008909896   -0.010603300
      4        6           0.023216946   -0.036409004    0.013871970
      5        6           0.020029369    0.000357943   -0.022156562
      6        6           0.023377981   -0.018335265    0.003091867
      7        1           0.000334269    0.000054361   -0.000620813
      8        1          -0.000212505   -0.000496895    0.000953043
      9        1          -0.000431829    0.000725454   -0.000698561
     10        1           0.000438275   -0.000528967    0.000166014
     11        6           0.056603409    0.120647955    0.001255265
     12        6           0.070217330    0.044431810    0.104170569
     13        8          -0.077341615   -0.021754089   -0.053175206
     14        8          -0.069353396   -0.066516378    0.007259894
     15        6          -0.023009194   -0.014239628   -0.007496494
     16        1           0.002149316    0.001709779    0.000981032
     17        1          -0.002977514   -0.002171559   -0.001213186
     18        1          -0.013889453    0.005537197    0.005512710
     19        1          -0.013815486    0.005132335    0.006060128
     20        1          -0.000772027    0.000215348   -0.001237475
     21        1          -0.000518292   -0.001203310    0.000678040
 -------------------------------------------------------------------
 Cartesian Forces:  Max     0.120647955 RMS     0.031308383
 FormGI is forming the generalized inverse of G from B-inverse, IUseBI=4.

 GradGradGradGradGradGradGradGradGradGradGradGradGradGradGradGradGradGrad
 Berny optimization.
 Internal  Forces:  Max     0.103991205 RMS     0.016574563
 Search for a saddle point.
 Step number   1 out of a maximum of  126
 All quantities printed in internal units (Hartrees-Bohrs-Radians)
 Swapping is turned off.
 Second derivative matrix not updated -- analytic derivatives used.
 ITU=  0
     Eigenvalues ---   -0.06053  -0.02143   0.00231   0.00503   0.00509
     Eigenvalues ---    0.00742   0.00921   0.01644   0.01812   0.01947
     Eigenvalues ---    0.02668   0.02970   0.03251   0.03264   0.03386
     Eigenvalues ---    0.03475   0.03582   0.04548   0.04646   0.05212
     Eigenvalues ---    0.05446   0.05588   0.06044   0.06306   0.06533
     Eigenvalues ---    0.07164   0.07681   0.07817   0.08534   0.08805
     Eigenvalues ---    0.08965   0.11634   0.11801   0.13485   0.14115
     Eigenvalues ---    0.18360   0.21395   0.22719   0.24405   0.24867
     Eigenvalues ---    0.24991   0.25108   0.25260   0.25570   0.25785
     Eigenvalues ---    0.25790   0.26802   0.27392   0.28387   0.28637
     Eigenvalues ---    0.29372   0.29582   0.34983   0.37542   0.53455
     Eigenvalues ---    0.65507   0.70172
 Eigenvectors required to have negative eigenvalues:
                          R3        R11       R15       A26       A32
   1                    0.64226   0.64225  -0.17160  -0.12748  -0.12747
                          D49       D47       D53       D51       D57
   1                   -0.12692   0.12691   0.10640  -0.10639  -0.10226
 RFO step:  Lambda0=5.441282488D-02 Lambda=-7.84129529D-02.
 Linear search not attempted -- option 19 set.
 Maximum step size (   0.040) exceeded in Quadratic search.
    -- Step size scaled by   0.048
 Iteration  1 RMS(Cart)=  0.00291456 RMS(Int)=  0.00001098
 Iteration  2 RMS(Cart)=  0.00001106 RMS(Int)=  0.00000518
 Iteration  3 RMS(Cart)=  0.00000000 RMS(Int)=  0.00000518
 Variable       Old X    -DE/DX   Delta X   Delta X   Delta X     New X
                                 (Linear)    (Quad)   (Total)
    R1        2.90512  -0.01443   0.00000  -0.00291  -0.00291   2.90221
    R2        2.86330  -0.02505   0.00000  -0.00773  -0.00773   2.85558
    R3        4.15740  -0.05769   0.00000   0.02059   0.02059   4.17798
    R4        2.96643  -0.00933   0.00000   0.00165   0.00165   2.96808
    R5        2.07018  -0.00021   0.00000   0.00002   0.00002   2.07020
    R6        2.06746  -0.00096   0.00000   0.00005   0.00005   2.06751
    R7        2.90512  -0.01443   0.00000  -0.00275  -0.00275   2.90237
    R8        2.07018  -0.00021   0.00000   0.00002   0.00002   2.07020
    R9        2.06746  -0.00096   0.00000   0.00004   0.00004   2.06750
   R10        2.86330  -0.02505   0.00000  -0.00743  -0.00743   2.85588
   R11        4.15740  -0.05770   0.00000   0.01574   0.01574   4.17314
   R12        2.56096  -0.00400   0.00000   0.00350   0.00350   2.56447
   R13        2.00796  -0.00051   0.00000   0.00008   0.00008   2.00803
   R14        2.00795  -0.00051   0.00000   0.00009   0.00009   2.00804
   R15        3.00199  -0.04000   0.00000  -0.01862  -0.01863   2.98336
   R16        2.40997   0.10399   0.00000   0.00727   0.00727   2.41725
   R17        2.06587  -0.01290   0.00000  -0.00189  -0.00189   2.06398
   R18        2.41002   0.10397   0.00000   0.00770   0.00770   2.41771
   R19        2.06587  -0.01290   0.00000  -0.00184  -0.00184   2.06403
   R20        2.73167   0.01644   0.00000   0.00133   0.00134   2.73301
   R21        2.73168   0.01644   0.00000   0.00161   0.00161   2.73329
   R22        2.07590  -0.00088   0.00000  -0.00032  -0.00032   2.07558
   R23        2.07509   0.00267   0.00000   0.00009   0.00009   2.07517
    A1        2.08439   0.01463   0.00000   0.00672   0.00673   2.09111
    A2        2.06900  -0.00462   0.00000  -0.00325  -0.00325   2.06574
    A3        2.12378  -0.00929   0.00000  -0.00357  -0.00357   2.12021
    A4        1.58353  -0.00358   0.00000  -0.00084  -0.00083   1.58269
    A5        1.98984   0.00125   0.00000   0.00079   0.00079   1.99063
    A6        2.00183   0.00081   0.00000   0.00032   0.00032   2.00214
    A7        1.99312   0.00285   0.00000   0.00107   0.00106   1.99419
    A8        1.99828  -0.00103   0.00000  -0.00137  -0.00137   1.99691
    A9        1.88733  -0.00047   0.00000  -0.00003  -0.00003   1.88730
   A10        1.58353  -0.00358   0.00000  -0.00073  -0.00073   1.58280
   A11        1.99311   0.00285   0.00000   0.00090   0.00090   1.99401
   A12        1.99829  -0.00103   0.00000  -0.00124  -0.00124   1.99705
   A13        1.98983   0.00125   0.00000   0.00084   0.00084   1.99067
   A14        2.00183   0.00081   0.00000   0.00019   0.00019   2.00203
   A15        1.88733  -0.00047   0.00000  -0.00001  -0.00001   1.88732
   A16        2.08437   0.01463   0.00000   0.00645   0.00644   2.09082
   A17        2.06901  -0.00462   0.00000  -0.00295  -0.00294   2.06606
   A18        2.12379  -0.00930   0.00000  -0.00347  -0.00347   2.12031
   A19        1.65461  -0.00391   0.00000  -0.00086  -0.00085   1.65376
   A20        2.24686   0.00292   0.00000   0.00246   0.00246   2.24932
   A21        2.38171   0.00099   0.00000  -0.00160  -0.00160   2.38010
   A22        1.65461  -0.00391   0.00000  -0.00097  -0.00097   1.65365
   A23        2.24686   0.00292   0.00000   0.00259   0.00259   2.24945
   A24        2.38171   0.00099   0.00000  -0.00162  -0.00162   2.38009
   A25        1.57542   0.00121   0.00000   0.00104   0.00103   1.57645
   A26        1.55720   0.01944   0.00000  -0.00187  -0.00187   1.55533
   A27        2.05058  -0.01267   0.00000  -0.00511  -0.00511   2.04547
   A28        1.86284  -0.00124   0.00000   0.00332   0.00331   1.86615
   A29        2.10959   0.00475   0.00000   0.00385   0.00386   2.11345
   A30        2.15251  -0.00680   0.00000  -0.00289  -0.00292   2.14959
   A31        1.57541   0.00121   0.00000   0.00268   0.00268   1.57810
   A32        1.55717   0.01944   0.00000  -0.00152  -0.00153   1.55564
   A33        2.05060  -0.01267   0.00000  -0.00543  -0.00543   2.04517
   A34        1.86282  -0.00124   0.00000   0.00308   0.00307   1.86589
   A35        2.10960   0.00475   0.00000   0.00336   0.00337   2.11297
   A36        2.15252  -0.00680   0.00000  -0.00305  -0.00308   2.14944
   A37        1.91359   0.00510   0.00000  -0.00256  -0.00256   1.91102
   A38        1.91359   0.00509   0.00000  -0.00265  -0.00265   1.91095
   A39        1.86621  -0.00755   0.00000  -0.00118  -0.00118   1.86504
   A40        1.91245   0.00110   0.00000  -0.00028  -0.00028   1.91217
   A41        1.86910   0.00239   0.00000   0.00077   0.00077   1.86986
   A42        1.91245   0.00110   0.00000  -0.00033  -0.00034   1.91211
   A43        1.86909   0.00239   0.00000   0.00062   0.00062   1.86971
   A44        2.02756  -0.00015   0.00000   0.00030   0.00030   2.02786
    D1       -1.46729  -0.00549   0.00000  -0.00104  -0.00104  -1.46833
    D2        0.57522  -0.00380   0.00000  -0.00008  -0.00008   0.57514
    D3        2.76462  -0.00265   0.00000   0.00086   0.00086   2.76548
    D4        1.55862   0.00066   0.00000  -0.00226  -0.00226   1.55636
    D5       -2.68205   0.00234   0.00000  -0.00130  -0.00130  -2.68335
    D6       -0.49265   0.00350   0.00000  -0.00036  -0.00036  -0.49301
    D7        1.50870   0.00462   0.00000   0.00079   0.00079   1.50949
    D8       -1.63164   0.00391   0.00000  -0.00032  -0.00032  -1.63196
    D9       -1.51346  -0.00212   0.00000   0.00199   0.00199  -1.51147
   D10        1.62939  -0.00283   0.00000   0.00088   0.00088   1.63027
   D11       -1.55378  -0.00348   0.00000   0.00027   0.00027  -1.55351
   D12        2.86660  -0.00224   0.00000  -0.00303  -0.00303   2.86357
   D13        0.63675  -0.00184   0.00000   0.00359   0.00358   0.64033
   D14        1.46939   0.00448   0.00000  -0.00026  -0.00025   1.46914
   D15       -0.39341   0.00572   0.00000  -0.00356  -0.00355  -0.39696
   D16       -2.62326   0.00612   0.00000   0.00306   0.00306  -2.62020
   D17       -0.00001   0.00000   0.00000  -0.00021  -0.00021  -0.00023
   D18        2.03959   0.00027   0.00000   0.00058   0.00058   2.04017
   D19       -2.05441   0.00122   0.00000   0.00027   0.00027  -2.05415
   D20       -2.03964  -0.00026   0.00000  -0.00093  -0.00093  -2.04057
   D21       -0.00003   0.00000   0.00000  -0.00015  -0.00015  -0.00018
   D22        2.18915   0.00095   0.00000  -0.00045  -0.00046   2.18869
   D23        2.05437  -0.00122   0.00000  -0.00064  -0.00063   2.05374
   D24       -2.18921  -0.00095   0.00000   0.00015   0.00015  -2.18906
   D25       -0.00003   0.00000   0.00000  -0.00016  -0.00016  -0.00018
   D26        1.46732   0.00549   0.00000   0.00101   0.00101   1.46833
   D27       -1.55860  -0.00066   0.00000   0.00100   0.00100  -1.55760
   D28       -0.57518   0.00380   0.00000   0.00017   0.00017  -0.57501
   D29        2.68209  -0.00234   0.00000   0.00016   0.00016   2.68225
   D30       -2.76457   0.00265   0.00000  -0.00073  -0.00073  -2.76530
   D31        0.49269  -0.00350   0.00000  -0.00073  -0.00073   0.49196
   D32       -1.50870  -0.00462   0.00000  -0.00050  -0.00050  -1.50919
   D33        1.63166  -0.00391   0.00000   0.00044   0.00044   1.63211
   D34        1.51347   0.00212   0.00000  -0.00042  -0.00042   1.51305
   D35       -1.62936   0.00283   0.00000   0.00051   0.00051  -1.62884
   D36        1.55380   0.00348   0.00000   0.00012   0.00012   1.55392
   D37       -2.86660   0.00224   0.00000   0.00316   0.00315  -2.86345
   D38       -0.63675   0.00184   0.00000  -0.00356  -0.00355  -0.64030
   D39       -1.46938  -0.00448   0.00000  -0.00057  -0.00058  -1.46996
   D40        0.39340  -0.00572   0.00000   0.00247   0.00246   0.39586
   D41        2.62325  -0.00612   0.00000  -0.00425  -0.00424   2.61901
   D42        0.00000   0.00000   0.00000   0.00004   0.00004   0.00004
   D43        3.14017   0.00081   0.00000   0.00130   0.00130   3.14147
   D44       -3.14020  -0.00081   0.00000  -0.00102  -0.00102  -3.14122
   D45       -0.00003   0.00000   0.00000   0.00024   0.00024   0.00021
   D46       -0.00001   0.00000   0.00000   0.00008   0.00008   0.00007
   D47       -1.55796  -0.02066   0.00000   0.00086   0.00086  -1.55710
   D48        2.14190  -0.01285   0.00000  -0.00336  -0.00336   2.13854
   D49        1.55798   0.02066   0.00000  -0.00156  -0.00156   1.55642
   D50        0.00002   0.00000   0.00000  -0.00077  -0.00078  -0.00075
   D51       -2.58330   0.00781   0.00000  -0.00499  -0.00500  -2.58830
   D52       -2.14188   0.01285   0.00000   0.00411   0.00412  -2.13776
   D53        2.58334  -0.00781   0.00000   0.00489   0.00491   2.58825
   D54        0.00002   0.00000   0.00000   0.00067   0.00068   0.00070
   D55        1.63296   0.00649   0.00000   0.00111   0.00110   1.63406
   D56        0.06143  -0.00063   0.00000   0.00064   0.00064   0.06206
   D57       -2.50475   0.00274   0.00000  -0.00798  -0.00796  -2.51272
   D58       -1.63298  -0.00649   0.00000  -0.00176  -0.00176  -1.63474
   D59       -0.06146   0.00063   0.00000   0.00054   0.00054  -0.06092
   D60        2.50472  -0.00274   0.00000   0.00753   0.00752   2.51224
   D61        0.09895  -0.00149   0.00000  -0.00037  -0.00037   0.09858
   D62        2.17031  -0.00390   0.00000  -0.00159  -0.00159   2.16872
   D63       -1.89975  -0.00176   0.00000  -0.00088  -0.00088  -1.90063
   D64       -0.09893   0.00149   0.00000  -0.00017  -0.00017  -0.09910
   D65       -2.17029   0.00390   0.00000   0.00102   0.00102  -2.16927
   D66        1.89977   0.00176   0.00000   0.00044   0.00044   1.90021
         Item               Value     Threshold  Converged?
 Maximum Force            0.103991     0.000015     NO 
 RMS     Force            0.016575     0.000010     NO 
 Maximum Displacement     0.011776     0.000060     NO 
 RMS     Displacement     0.002911     0.000040     NO 
 Predicted change in Energy=-1.127810D-03
 GradGradGradGradGradGradGradGradGradGradGradGradGradGradGradGradGradGrad

                          Input orientation:                          
 ---------------------------------------------------------------------
 Center     Atomic      Atomic             Coordinates (Angstroms)
 Number     Number       Type             X           Y           Z
 ---------------------------------------------------------------------
      1          6           0       -0.240537    0.612969    0.486825
      2          6           0        0.757964    1.619720    1.076804
      3          6           0        0.591898    2.548696   -0.178715
      4          6           0       -0.410278    1.563437   -0.798226
      5          6           0       -1.867461    1.626212   -0.402504
      6          6           0       -1.724043    0.823693    0.682391
      7          1           0        0.169404    3.534645    0.043845
      8          1           0       -2.664544    2.147857   -0.873330
      9          1           0       -2.358600    0.435552    1.441222
     10          1           0        0.430822    2.073353    2.018783
     11          6           0        0.535032   -0.991131   -0.822145
     12          6           0        0.367271   -0.055789   -2.082848
     13          8           0       -0.816678   -0.243002   -2.530149
     14          8           0       -0.569813   -1.618602   -0.674405
     15          6           0       -1.466826   -1.277701   -1.756630
     16          1           0       -2.409336   -0.891919   -1.345265
     17          1           0       -1.545970   -2.162656   -2.401990
     18          1           0        1.217908    0.182017   -2.725378
     19          1           0        1.505345   -1.420853   -0.563774
     20          1           0        1.770082    1.229725    1.220089
     21          1           0        1.508348    2.693881   -0.758403
 ---------------------------------------------------------------------
                    Distance matrix (angstroms):
                    1          2          3          4          5
     1  C    0.000000
     2  C    1.535782   0.000000
     3  C    2.209736   1.570638   0.000000
     4  C    1.607345   2.209909   1.535866   0.000000
     5  C    2.112924   3.013512   2.636191   1.511265   0.000000
     6  C    1.511105   2.636206   3.013424   2.113156   1.357057
     7  H    2.983365   2.253962   1.095504   2.220534   2.826687
     8  H    3.175171   3.974357   3.353740   2.330000   1.062606
     9  H    2.329923   3.353808   3.974294   3.175407   2.249046
    10  H    2.220436   1.095504   2.254084   2.983790   3.368184
    11  C    2.210893   3.236086   3.598279   2.723968   3.577507
    12  C    2.723947   3.597689   3.234118   2.208331   3.262930
    13  O    3.188535   4.354232   3.912404   2.535338   3.020758
    14  O    2.537082   3.913624   4.354498   3.188441   3.505230
    15  C    3.179860   4.623104   4.622713   3.179135   3.229067
    16  H    3.213243   4.712382   4.712332   3.213138   2.742883
    17  H    4.213491   5.631740   5.631187   4.212556   4.296140
    18  H    3.554016   4.090859   3.532499   2.876321   4.123220
    19  H    2.878941   3.534850   4.091452   3.553951   4.548234
    20  H    2.227252   1.094079   2.254874   2.989804   4.002715
    21  H    2.989881   2.254968   1.094074   2.227243   3.558464
                    6          7          8          9         10
     6  C    0.000000
     7  H    3.367810   0.000000
     8  H    2.249049   3.285673   0.000000
     9  H    1.062610   4.236489   2.895296   0.000000
    10  H    2.826842   2.470646   4.236880   3.285855   0.000000
    11  C    3.265062   4.622366   4.482538   3.940985   4.180047
    12  C    3.576818   4.177701   3.938386   4.482283   4.621759
    13  O    3.504506   4.676367   3.446137   4.313901   5.254953
    14  O    3.022903   5.255309   4.314357   3.448940   4.678147
    15  C    3.229681   5.392367   3.734861   3.735874   5.392993
    16  H    2.743053   5.307917   3.086760   3.086950   5.308121
    17  H    4.296906   6.433028   4.708346   4.709706   6.433872
    18  H    4.547495   4.473038   4.729485   5.496930   5.167564
    19  H    4.125513   5.168259   5.497225   4.732476   4.475900
    20  H    3.558495   3.042758   4.989115   4.210181   1.772918
    21  H    4.002729   1.772923   4.210033   4.989157   3.042840
                   11         12         13         14         15
    11  C    0.000000
    12  C    1.578727   0.000000
    13  O    2.303061   1.279399   0.000000
    14  O    1.279151   2.303090   2.323145   0.000000
    15  C    2.227738   2.227869   1.446245   1.446395   0.000000
    16  H    2.992122   2.992105   2.088445   2.088532   1.098350
    17  H    2.863381   2.863780   2.057514   2.057530   1.098134
    18  H    2.337710   1.092235   2.087652   3.262616   3.205782
    19  H    1.092211   2.337990   3.262783   2.087492   3.205807
    20  H    3.260103   3.811799   4.787957   4.144536   5.062175
    21  H    3.811919   3.258357   4.143683   4.787830   5.061776
                   16         17         18         19         20
    16  H    0.000000
    17  H    1.864629   0.000000
    18  H    4.026778   3.638831   0.000000
    19  H    4.026813   3.638658   2.706352   0.000000
    20  H    5.343215   5.968577   4.119380   3.205904   0.000000
    21  H    5.343278   5.967930   3.203562   4.119336   2.475214
                   21
    21  H    0.000000
 Symmetry turned off by external request.
 Stoichiometry    C9H10O2
 Framework group  C1[X(C9H10O2)]
 Deg. of freedom    57
 Full point group                 C1      NOp   1
 Rotational constants (GHZ):           2.0502626           1.0585843           1.0172466
 Standard basis: VSTO-6G (5D, 7F)
    54 basis functions,   324 primitive gaussians,    54 cartesian basis functions
    29 alpha electrons       29 beta electrons
       nuclear repulsion energy       360.4580512442 Hartrees.
 Integral buffers will be    131072 words long.
 Regular integral format.
 Two-electron integral symmetry is turned off.
 Do NDO integrals.
 One-electron integrals computed using PRISM.
 NBasis=    54 RedAO= F EigKep=  0.00D+00  NBF=    54
 NBsUse=    54 1.00D-04 EigRej=  0.00D+00 NBFU=    54
 Initial guess from the checkpoint file:  "C:\Users\al6323\OneDrive - Imperial College London\Desktop\TSR20251115\Exercise 2\TS_Berny_PM6_endo.chk"
 B after Tr=    -0.000118    0.000024    0.000139
         Rot=    1.000000   -0.000023    0.000014   -0.000047 Ang=  -0.01 deg.
 Keep J ints in memory in canonical form, NReq=867381.
 Overlap will be assumed to be unity.
 Requested convergence on RMS density matrix=1.00D-08 within  32 cycles.
 Requested convergence on MAX density matrix=1.00D-06.
 Requested convergence on             energy=1.00D-06.
 No special actions if energy rises.
 SCF Done:  E(RPM6) =  0.226935085972     A.U. after   17 cycles
            NFock= 16  Conv=0.54D-08     -V/T= 1.0021
 QCSCF skips out because SCF is already converged.
 Calling FoFJK, ICntrl=      2127 FMM=F ISym2X=0 I1Cent= 0 IOpClX= 0 NMat=1 NMatS=1 NMatT=0.
 -------------------------------------------------------------------
 Center     Atomic                   Forces (Hartrees/Bohr)
 Number     Number              X              Y              Z
 -------------------------------------------------------------------
      1        6           0.015411462    0.004628334   -0.040794209
      2        6          -0.004323828   -0.013029908   -0.004351703
      3        6          -0.005113684   -0.008559982   -0.010395918
      4        6           0.022616857   -0.035379969    0.013054285
      5        6           0.019396779    0.000470867   -0.021644449
      6        6           0.022691567   -0.017864748    0.003157634
      7        1           0.000339425    0.000061363   -0.000590348
      8        1          -0.000259597   -0.000529396    0.000932751
      9        1          -0.000477476    0.000698330   -0.000711390
     10        1           0.000443786   -0.000486441    0.000159963
     11        6           0.053694295    0.116930559    0.000357038
     12        6           0.066965664    0.042243404    0.101460994
     13        8          -0.074050599   -0.020670035   -0.051582285
     14        8          -0.066271736   -0.064243199    0.007325427
     15        6          -0.021963780   -0.013593429   -0.007165502
     16        1           0.002116613    0.001683423    0.000971050
     17        1          -0.002903778   -0.002071760   -0.001150827
     18        1          -0.013633670    0.005732792    0.005188513
     19        1          -0.013477648    0.004934751    0.006314896
     20        1          -0.000727284    0.000215514   -0.001209699
     21        1          -0.000473367   -0.001170471    0.000673781
 -------------------------------------------------------------------
 Cartesian Forces:  Max     0.116930559 RMS     0.030201428

 GradGradGradGradGradGradGradGradGradGradGradGradGradGradGradGradGradGrad
 Berny optimization.
 FormGI is forming the generalized inverse of G from B-inverse, IUseBI=4.
 Internal  Forces:  Max     0.099662065 RMS     0.015978572
 Search for a saddle point.
 Step number   2 out of a maximum of  126
 All quantities printed in internal units (Hartrees-Bohrs-Radians)
 Swapping is turned off.
 Update second derivatives using D2CorX and points    1    2
 ITU=  0  0
     Eigenvalues ---   -0.06370  -0.02139   0.00231   0.00506   0.00509
     Eigenvalues ---    0.00742   0.00921   0.01645   0.01812   0.01963
     Eigenvalues ---    0.02668   0.02970   0.03264   0.03265   0.03386
     Eigenvalues ---    0.03475   0.03583   0.04548   0.04646   0.05211
     Eigenvalues ---    0.05446   0.05588   0.06041   0.06308   0.06533
     Eigenvalues ---    0.07164   0.07677   0.07817   0.08529   0.08805
     Eigenvalues ---    0.08965   0.11636   0.11801   0.13493   0.14114
     Eigenvalues ---    0.18360   0.21395   0.22719   0.24405   0.24865
     Eigenvalues ---    0.24981   0.25108   0.25253   0.25571   0.25781
     Eigenvalues ---    0.25790   0.26796   0.27385   0.28387   0.28637
     Eigenvalues ---    0.29372   0.29577   0.34976   0.37536   0.53455
     Eigenvalues ---    0.65508   0.70116
 Eigenvectors required to have negative eigenvalues:
                          R3        R11       R15       A32       A26
   1                    0.64210   0.64093  -0.17410  -0.12652  -0.12648
                          D49       D47       D51       D53       D57
   1                   -0.12593   0.12574  -0.10658   0.10656  -0.10266
 RFO step:  Lambda0=5.054453350D-02 Lambda=-7.54808550D-02.
 Linear search not attempted -- option 19 set.
 Maximum step size (   0.040) exceeded in Quadratic search.
    -- Step size scaled by   0.049
 Iteration  1 RMS(Cart)=  0.00294414 RMS(Int)=  0.00001146
 Iteration  2 RMS(Cart)=  0.00001156 RMS(Int)=  0.00000537
 Iteration  3 RMS(Cart)=  0.00000000 RMS(Int)=  0.00000537
 Variable       Old X    -DE/DX   Delta X   Delta X   Delta X     New X
                                 (Linear)    (Quad)   (Total)
    R1        2.90221  -0.01390   0.00000  -0.00294  -0.00294   2.89926
    R2        2.85558  -0.02419   0.00000  -0.00796  -0.00796   2.84762
    R3        4.17798  -0.05618   0.00000   0.02016   0.02016   4.19814
    R4        2.96808  -0.00883   0.00000   0.00174   0.00174   2.96982
    R5        2.07020  -0.00020   0.00000   0.00002   0.00002   2.07023
    R6        2.06751  -0.00091   0.00000   0.00006   0.00006   2.06757
    R7        2.90237  -0.01389   0.00000  -0.00278  -0.00278   2.89959
    R8        2.07020  -0.00020   0.00000   0.00002   0.00002   2.07022
    R9        2.06750  -0.00091   0.00000   0.00005   0.00005   2.06755
   R10        2.85588  -0.02419   0.00000  -0.00764  -0.00764   2.84823
   R11        4.17314  -0.05627   0.00000   0.01512   0.01512   4.18826
   R12        2.56447  -0.00369   0.00000   0.00369   0.00370   2.56816
   R13        2.00803  -0.00048   0.00000   0.00008   0.00008   2.00812
   R14        2.00804  -0.00048   0.00000   0.00009   0.00009   2.00813
   R15        2.98336  -0.03883   0.00000  -0.01876  -0.01877   2.96459
   R16        2.41725   0.09966   0.00000   0.00728   0.00728   2.42453
   R17        2.06398  -0.01242   0.00000  -0.00186  -0.00186   2.06212
   R18        2.41771   0.09965   0.00000   0.00772   0.00772   2.42544
   R19        2.06403  -0.01242   0.00000  -0.00181  -0.00181   2.06222
   R20        2.73301   0.01579   0.00000   0.00131   0.00131   2.73431
   R21        2.73329   0.01579   0.00000   0.00159   0.00159   2.73488
   R22        2.07558  -0.00086   0.00000  -0.00032  -0.00032   2.07526
   R23        2.07517   0.00256   0.00000   0.00008   0.00008   2.07526
    A1        2.09111   0.01437   0.00000   0.00697   0.00697   2.09808
    A2        2.06574  -0.00457   0.00000  -0.00341  -0.00341   2.06233
    A3        2.12021  -0.00912   0.00000  -0.00367  -0.00367   2.11654
    A4        1.58269  -0.00346   0.00000  -0.00081  -0.00081   1.58189
    A5        1.99063   0.00122   0.00000   0.00079   0.00078   1.99142
    A6        2.00214   0.00078   0.00000   0.00033   0.00033   2.00247
    A7        1.99419   0.00279   0.00000   0.00107   0.00106   1.99525
    A8        1.99691  -0.00105   0.00000  -0.00141  -0.00141   1.99550
    A9        1.88730  -0.00045   0.00000  -0.00002  -0.00001   1.88729
   A10        1.58280  -0.00345   0.00000  -0.00070  -0.00070   1.58210
   A11        1.99401   0.00278   0.00000   0.00090   0.00089   1.99490
   A12        1.99705  -0.00105   0.00000  -0.00128  -0.00128   1.99577
   A13        1.99067   0.00122   0.00000   0.00084   0.00083   1.99150
   A14        2.00203   0.00078   0.00000   0.00020   0.00020   2.00222
   A15        1.88732  -0.00045   0.00000   0.00000   0.00000   1.88732
   A16        2.09082   0.01436   0.00000   0.00667   0.00667   2.09749
   A17        2.06606  -0.00456   0.00000  -0.00309  -0.00309   2.06297
   A18        2.12031  -0.00912   0.00000  -0.00356  -0.00356   2.11675
   A19        1.65376  -0.00378   0.00000  -0.00084  -0.00084   1.65292
   A20        2.24932   0.00289   0.00000   0.00253   0.00252   2.25185
   A21        2.38010   0.00089   0.00000  -0.00168  -0.00168   2.37842
   A22        1.65365  -0.00378   0.00000  -0.00096  -0.00095   1.65269
   A23        2.24945   0.00289   0.00000   0.00266   0.00266   2.25211
   A24        2.38009   0.00089   0.00000  -0.00170  -0.00170   2.37838
   A25        1.57645   0.00121   0.00000   0.00104   0.00103   1.57748
   A26        1.55533   0.01890   0.00000  -0.00168  -0.00169   1.55364
   A27        2.04547  -0.01248   0.00000  -0.00539  -0.00539   2.04008
   A28        1.86615  -0.00114   0.00000   0.00334   0.00333   1.86948
   A29        2.11345   0.00479   0.00000   0.00405   0.00405   2.11750
   A30        2.14959  -0.00672   0.00000  -0.00310  -0.00313   2.14646
   A31        1.57810   0.00127   0.00000   0.00275   0.00275   1.58084
   A32        1.55564   0.01890   0.00000  -0.00134  -0.00135   1.55429
   A33        2.04517  -0.01250   0.00000  -0.00573  -0.00574   2.03943
   A34        1.86589  -0.00116   0.00000   0.00309   0.00308   1.86897
   A35        2.11297   0.00478   0.00000   0.00355   0.00356   2.11653
   A36        2.14944  -0.00671   0.00000  -0.00325  -0.00328   2.14616
   A37        1.91102   0.00478   0.00000  -0.00260  -0.00260   1.90842
   A38        1.91095   0.00476   0.00000  -0.00269  -0.00268   1.90826
   A39        1.86504  -0.00708   0.00000  -0.00114  -0.00114   1.86390
   A40        1.91217   0.00100   0.00000  -0.00030  -0.00030   1.91188
   A41        1.86986   0.00226   0.00000   0.00077   0.00077   1.87063
   A42        1.91211   0.00099   0.00000  -0.00036  -0.00036   1.91176
   A43        1.86971   0.00226   0.00000   0.00063   0.00063   1.87034
   A44        2.02786  -0.00012   0.00000   0.00029   0.00029   2.02815
    D1       -1.46833  -0.00534   0.00000  -0.00101  -0.00101  -1.46934
    D2        0.57514  -0.00367   0.00000  -0.00004  -0.00003   0.57510
    D3        2.76548  -0.00253   0.00000   0.00092   0.00093   2.76640
    D4        1.55636   0.00053   0.00000  -0.00234  -0.00234   1.55403
    D5       -2.68335   0.00220   0.00000  -0.00136  -0.00137  -2.68471
    D6       -0.49301   0.00333   0.00000  -0.00040  -0.00041  -0.49342
    D7        1.50949   0.00449   0.00000   0.00075   0.00074   1.51023
    D8       -1.63196   0.00375   0.00000  -0.00040  -0.00040  -1.63236
    D9       -1.51147  -0.00194   0.00000   0.00207   0.00207  -1.50940
   D10        1.63027  -0.00269   0.00000   0.00092   0.00092   1.63120
   D11       -1.55351  -0.00333   0.00000   0.00031   0.00031  -1.55320
   D12        2.86357  -0.00219   0.00000  -0.00301  -0.00300   2.86057
   D13        0.64033  -0.00158   0.00000   0.00374   0.00373   0.64406
   D14        1.46914   0.00429   0.00000  -0.00029  -0.00029   1.46885
   D15       -0.39696   0.00543   0.00000  -0.00361  -0.00360  -0.40056
   D16       -2.62020   0.00605   0.00000   0.00314   0.00313  -2.61707
   D17       -0.00023  -0.00001   0.00000  -0.00022  -0.00022  -0.00045
   D18        2.04017   0.00028   0.00000   0.00057   0.00057   2.04074
   D19       -2.05415   0.00118   0.00000   0.00024   0.00024  -2.05391
   D20       -2.04057  -0.00029   0.00000  -0.00095  -0.00095  -2.04152
   D21       -0.00018   0.00000   0.00000  -0.00015  -0.00015  -0.00033
   D22        2.18869   0.00090   0.00000  -0.00049  -0.00049   2.18821
   D23        2.05374  -0.00119   0.00000  -0.00063  -0.00063   2.05311
   D24       -2.18906  -0.00090   0.00000   0.00017   0.00017  -2.18889
   D25       -0.00018   0.00000   0.00000  -0.00017  -0.00017  -0.00035
   D26        1.46833   0.00534   0.00000   0.00098   0.00098   1.46931
   D27       -1.55760  -0.00056   0.00000   0.00102   0.00102  -1.55658
   D28       -0.57501   0.00367   0.00000   0.00013   0.00013  -0.57488
   D29        2.68225  -0.00223   0.00000   0.00017   0.00017   2.68242
   D30       -2.76530   0.00254   0.00000  -0.00078  -0.00078  -2.76608
   D31        0.49196  -0.00336   0.00000  -0.00074  -0.00074   0.49122
   D32       -1.50919  -0.00448   0.00000  -0.00044  -0.00044  -1.50963
   D33        1.63211  -0.00374   0.00000   0.00053   0.00053   1.63264
   D34        1.51305   0.00198   0.00000  -0.00042  -0.00042   1.51263
   D35       -1.62884   0.00272   0.00000   0.00055   0.00055  -1.62829
   D36        1.55392   0.00332   0.00000   0.00010   0.00010   1.55402
   D37       -2.86345   0.00220   0.00000   0.00314   0.00314  -2.86031
   D38       -0.64030   0.00158   0.00000  -0.00370  -0.00369  -0.64399
   D39       -1.46996  -0.00431   0.00000  -0.00057  -0.00058  -1.47054
   D40        0.39586  -0.00544   0.00000   0.00247   0.00246   0.39832
   D41        2.61901  -0.00606   0.00000  -0.00437  -0.00436   2.61465
   D42        0.00004   0.00001   0.00000   0.00005   0.00005   0.00009
   D43        3.14147   0.00084   0.00000   0.00134   0.00134  -3.14038
   D44       -3.14122  -0.00083   0.00000  -0.00105  -0.00104   3.14092
   D45        0.00021   0.00001   0.00000   0.00025   0.00025   0.00045
   D46        0.00007   0.00001   0.00000   0.00008   0.00008   0.00015
   D47       -1.55710  -0.02013   0.00000   0.00064   0.00064  -1.55646
   D48        2.13854  -0.01261   0.00000  -0.00361  -0.00361   2.13493
   D49        1.55642   0.02012   0.00000  -0.00136  -0.00137   1.55505
   D50       -0.00075  -0.00001   0.00000  -0.00080  -0.00081  -0.00156
   D51       -2.58830   0.00751   0.00000  -0.00505  -0.00506  -2.59336
   D52       -2.13776   0.01263   0.00000   0.00439   0.00440  -2.13337
   D53        2.58825  -0.00750   0.00000   0.00495   0.00496   2.59321
   D54        0.00070   0.00002   0.00000   0.00070   0.00071   0.00141
   D55        1.63406   0.00641   0.00000   0.00117   0.00116   1.63522
   D56        0.06206  -0.00062   0.00000   0.00065   0.00065   0.06272
   D57       -2.51272   0.00248   0.00000  -0.00813  -0.00811  -2.52083
   D58       -1.63474  -0.00642   0.00000  -0.00185  -0.00184  -1.63658
   D59       -0.06092   0.00067   0.00000   0.00057   0.00057  -0.06035
   D60        2.51224  -0.00246   0.00000   0.00768   0.00766   2.51991
   D61        0.09858  -0.00148   0.00000  -0.00038  -0.00038   0.09820
   D62        2.16872  -0.00379   0.00000  -0.00161  -0.00161   2.16711
   D63       -1.90063  -0.00177   0.00000  -0.00092  -0.00092  -1.90155
   D64       -0.09910   0.00148   0.00000  -0.00017  -0.00016  -0.09926
   D65       -2.16927   0.00379   0.00000   0.00103   0.00103  -2.16825
   D66        1.90021   0.00177   0.00000   0.00048   0.00048   1.90069
         Item               Value     Threshold  Converged?
 Maximum Force            0.099662     0.000015     NO 
 RMS     Force            0.015979     0.000010     NO 
 Maximum Displacement     0.011502     0.000060     NO 
 RMS     Displacement     0.002940     0.000040     NO 
 Predicted change in Energy=-1.200132D-03
 GradGradGradGradGradGradGradGradGradGradGradGradGradGradGradGradGradGrad

                          Input orientation:                          
 ---------------------------------------------------------------------
 Center     Atomic      Atomic             Coordinates (Angstroms)
 Number     Number       Type             X           Y           Z
 ---------------------------------------------------------------------
      1          6           0       -0.242838    0.618308    0.490584
      2          6           0        0.758209    1.621270    1.078646
      3          6           0        0.592331    2.550306   -0.178007
      4          6           0       -0.411934    1.567215   -0.793926
      5          6           0       -1.866604    1.626308   -0.403853
      6          6           0       -1.723282    0.823182    0.683051
      7          1           0        0.173204    3.537903    0.043659
      8          1           0       -2.665378    2.144298   -0.875946
      9          1           0       -2.360180    0.433295    1.439087
     10          1           0        0.434647    2.075670    2.021506
     11          6           0        0.536779   -0.990497   -0.828232
     12          6           0        0.369463   -0.059874   -2.080058
     13          8           0       -0.817834   -0.244582   -2.531217
     14          8           0       -0.570074   -1.621225   -0.676050
     15          6           0       -1.468748   -1.279912   -1.757893
     16          1           0       -2.410094   -0.893209   -1.345180
     17          1           0       -1.549498   -2.164641   -2.403438
     18          1           0        1.217520    0.183617   -2.722239
     19          1           0        1.505439   -1.418433   -0.564891
     20          1           0        1.769992    1.229300    1.219109
     21          1           0        1.508868    2.691806   -0.758516
 ---------------------------------------------------------------------
                    Distance matrix (angstroms):
                    1          2          3          4          5
     1  C    0.000000
     2  C    1.534225   0.000000
     3  C    2.208423   1.571559   0.000000
     4  C    1.605922   2.208775   1.534397   0.000000
     5  C    2.110142   3.014544   2.636502   1.507220   0.000000
     6  C    1.506895   2.636520   3.014372   2.110611   1.359012
     7  H    2.982762   2.255418   1.095515   2.219808   2.831127
     8  H    3.172499   3.976800   3.356282   2.327608   1.062650
     9  H    2.327451   3.356420   3.976688   3.172978   2.250184
    10  H    2.219597   1.095516   2.255660   2.983603   3.373433
    11  C    2.221561   3.241380   3.600439   2.728209   3.578271
    12  C    2.728194   3.599275   3.237361   2.216334   3.263874
    13  O    3.194758   4.358489   3.916320   2.542743   3.020898
    14  O    2.546296   3.918810   4.359002   3.194535   3.507357
    15  C    3.187749   4.628407   4.627597   3.186255   3.230763
    16  H    3.217407   4.715472   4.715362   3.217174   2.743983
    17  H    4.222266   5.637690   5.636551   4.220347   4.297697
    18  H    3.555817   4.089565   3.530608   2.878863   4.119235
    19  H    2.884235   3.535444   4.090762   3.555682   4.546103
    20  H    2.226105   1.094109   2.254745   2.987859   4.002057
    21  H    2.987996   2.254928   1.094099   2.226082   3.557370
                    6          7          8          9         10
     6  C    0.000000
     7  H    3.372713   0.000000
     8  H    2.250192   3.293229   0.000000
     9  H    1.062658   4.243094   2.894833   0.000000
    10  H    2.831403   2.473531   4.243830   3.293579   0.000000
    11  C    3.268224   4.625883   4.481409   3.944654   4.187220
    12  C    3.576890   4.182427   3.939356   4.480909   4.624675
    13  O    3.505920   4.681810   3.443848   4.312964   5.261137
    14  O    3.025255   5.261848   4.313864   3.449541   4.685435
    15  C    3.232028   5.399346   3.732957   3.735025   5.400620
    16  H    2.744345   5.313855   3.084120   3.084517   5.314260
    17  H    4.299268   6.440109   4.705888   4.708660   6.441832
    18  H    4.544597   4.471245   4.725460   5.493534   5.166805
    19  H    4.123935   5.168216   5.494135   4.731578   4.477142
    20  H    3.557423   3.043200   4.989888   4.211928   1.772944
    21  H    4.002083   1.772954   4.211637   4.989977   3.043369
                   11         12         13         14         15
    11  C    0.000000
    12  C    1.568796   0.000000
    13  O    2.300331   1.283486   0.000000
    14  O    1.283005   2.300388   2.323397   0.000000
    15  C    2.229388   2.229641   1.446937   1.447237   0.000000
    16  H    2.993453   2.993398   2.088706   2.088879   1.098182
    17  H    2.865736   2.866537   2.058710   2.058748   1.098178
    18  H    2.330068   1.091277   2.088662   3.261877   3.207478
    19  H    1.091228   2.330634   3.262201   2.088357   3.207527
    20  H    3.261889   3.808931   4.788958   4.146448   5.064398
    21  H    3.809091   3.258291   4.144682   4.788637   5.063546
                   16         17         18         19         20
    16  H    0.000000
    17  H    1.864692   0.000000
    18  H    4.026839   3.643123   0.000000
    19  H    4.026923   3.642763   2.702520   0.000000
    20  H    5.343570   5.971658   4.114961   3.203613   0.000000
    21  H    5.343666   5.970298   3.198766   4.114799   2.473481
                   21
    21  H    0.000000
 Symmetry turned off by external request.
 Stoichiometry    C9H10O2
 Framework group  C1[X(C9H10O2)]
 Deg. of freedom    57
 Full point group                 C1      NOp   1
 Rotational constants (GHZ):           2.0508070           1.0567581           1.0150184
 Standard basis: VSTO-6G (5D, 7F)
    54 basis functions,   324 primitive gaussians,    54 cartesian basis functions
    29 alpha electrons       29 beta electrons
       nuclear repulsion energy       360.3498746003 Hartrees.
 Integral buffers will be    131072 words long.
 Regular integral format.
 Two-electron integral symmetry is turned off.
 Do NDO integrals.
 One-electron integrals computed using PRISM.
 NBasis=    54 RedAO= F EigKep=  0.00D+00  NBF=    54
 NBsUse=    54 1.00D-04 EigRej=  0.00D+00 NBFU=    54
 Initial guess from the checkpoint file:  "C:\Users\al6323\OneDrive - Imperial College London\Desktop\TSR20251115\Exercise 2\TS_Berny_PM6_endo.chk"
 B after Tr=    -0.000152    0.000049    0.000165
         Rot=    1.000000   -0.000024    0.000010   -0.000044 Ang=  -0.01 deg.
 Keep J ints in memory in canonical form, NReq=867381.
 Overlap will be assumed to be unity.
 Requested convergence on RMS density matrix=1.00D-08 within  32 cycles.
 Requested convergence on MAX density matrix=1.00D-06.
 Requested convergence on             energy=1.00D-06.
 No special actions if energy rises.
 SCF Done:  E(RPM6) =  0.225728958764     A.U. after   17 cycles
            NFock= 16  Conv=0.80D-08     -V/T= 1.0021
 QCSCF skips out because SCF is already converged.
 Calling FoFJK, ICntrl=      2127 FMM=F ISym2X=0 I1Cent= 0 IOpClX= 0 NMat=1 NMatS=1 NMatT=0.
 -------------------------------------------------------------------
 Center     Atomic                   Forces (Hartrees/Bohr)
 Number     Number              X              Y              Z
 -------------------------------------------------------------------
      1        6           0.014884764    0.004289767   -0.039236150
      2        6          -0.004137914   -0.012713347   -0.004119848
      3        6          -0.004922380   -0.008220939   -0.010203101
      4        6           0.021862164   -0.034195216    0.012366221
      5        6           0.018835602    0.000643665   -0.021237486
      6        6           0.022100203   -0.017465163    0.003296101
      7        1           0.000344017    0.000069859   -0.000562702
      8        1          -0.000307504   -0.000566070    0.000911190
      9        1          -0.000524121    0.000669057   -0.000727151
     10        1           0.000449648   -0.000445642    0.000156225
     11        6           0.050968642    0.113124881   -0.000700850
[...]
 .00057772,-0.02223144,0.24254641,0.00051669,0.00029566,0.00057575,-0.0
 0494471,0.01734498,0.00303867,0.00501358,-0.05648205,-0.05566630,-0.00
 285807,-0.01341074,-0.00177804,0.00020522,0.00018111,-0.00014843,0.000
 48299,0.00058427,0.00002307,-0.00674067,0.06542032,0.06167736,-0.00161
 703,0.00105248,-0.00071018,0.00016610,-0.00002258,-0.00005606,-0.00034
 957,0.00109171,0.00028014,-0.03140750,0.00730243,-0.01032779,-0.170190
 41,0.06397642,-0.06476800,-0.00086612,0.00335906,-0.00435213,0.0001694
 7,-0.00012228,0.00008431,0.20368690,0.00133741,0.00281682,0.00380683,0
 .00109142,-0.00056231,0.00057071,-0.00052759,-0.00078292,0.00086737,0.
 00033892,0.00688351,-0.00168344,0.06116875,-0.06895783,0.03129768,0.01
 312047,-0.00806819,0.01177409,-0.00011715,0.00013644,0.00000809,-0.076
 34375,0.06736794,-0.00075298,0.00281509,0.00327898,0.00111061,-0.00040
 962,0.00041381,-0.00006153,-0.00105022,0.00107462,0.00215599,0.0020687
 5,0.00441623,-0.06816821,0.02997974,-0.07322393,-0.01298666,0.01215288
 ,-0.00730664,-0.00007856,-0.00013506,0.00000622,0.07988287,-0.04726171
 ,0.07093711,-0.02630221,-0.01617382,0.01310175,-0.00060364,0.00016942,
 0.00133344,0.00008556,-0.00008225,0.00000680,-0.00059883,-0.00083356,0
 .00120114,0.00348090,0.00019882,-0.00148129,-0.11909258,-0.07167865,0.
 06572556,0.00002076,-0.00003112,-0.00003478,0.00049393,0.00029471,-0.0
 0020656,0.14212629,-0.00289999,0.00094433,0.00472168,-0.00063314,0.000
 79697,-0.00075525,0.00074811,0.00042452,-0.00041792,-0.00094611,0.0014
 8342,0.00227258,-0.00957627,-0.01084472,0.01393306,-0.07476009,-0.1024
 2642,0.05882628,-0.00005545,-0.00002963,-0.00004141,0.00005223,0.00014
 190,0.00050631,0.08866309,0.10836388,0.00742736,0.00039296,0.00349701,
 -0.00067857,0.00042570,-0.00098309,0.00078047,0.00069327,-0.00063175,0
 .00104246,0.00313792,0.00167057,0.00820444,0.01496905,-0.01018572,0.06
 157393,0.05813431,-0.08604708,0.00003654,0.00002693,0.00008801,0.00013
 898,0.00087199,0.00022123,-0.07813794,-0.07941515,0.09070776,-0.006234
 61,-0.01281920,-0.01810091,-0.03431661,0.00648662,0.01919510,0.0029023
 1,0.00042772,-0.00079926,-0.00210365,0.00121027,-0.00004122,0.00048295
 ,0.00126304,-0.00047731,0.00209564,-0.00096636,0.00002459,0.00041082,0
 .00007079,-0.00028495,-0.00000723,0.00001209,-0.00007662,0.00018764,-0
 .00006552,-0.00018601,0.04174697,-0.00683949,-0.00711628,-0.01773984,0
 .00598049,-0.06215866,-0.06326879,-0.00299473,0.00405853,0.01621268,-0
 .00004892,0.00080822,-0.00002829,0.00043080,0.00036718,0.00036550,0.00
 122016,-0.00022489,0.00001960,-0.00027417,0.00046948,0.00061181,-0.000
 02625,0.00006119,-0.00003708,0.00011762,0.00002949,0.00000893,-0.00576
 780,0.07038178,-0.01195302,-0.01253592,-0.01356159,0.02078072,-0.06021
 495,-0.18896793,0.00193815,0.00216073,-0.02628256,-0.00167884,-0.00015
 624,-0.00079053,0.00010863,0.00050797,-0.00060646,0.00102563,-0.000346
 87,0.00045275,0.00017932,0.00017240,0.00047843,-0.00010501,0.00002500,
 -0.00006087,-0.00007628,-0.00012071,0.00018115,-0.01609622,0.07581894,
 0.23533626,0.01373771,-0.02592851,-0.02023180,0.00078783,-0.00050912,-
 0.00036737,0.00020376,0.00041827,0.00147425,0.01098592,-0.00174535,-0.
 00581394,-0.00954518,-0.00826402,0.01372790,-0.02809574,0.01847437,-0.
 00423044,0.00010880,-0.00013983,0.00012816,0.00047888,-0.00080398,-0.0
 0052697,0.00041787,0.00072982,-0.00008174,-0.00002876,0.00016456,-0.00
 032318,0.39294026,-0.04379629,0.03547914,0.03357297,-0.00210465,-0.012
 92563,-0.00843818,-0.00008756,-0.00110997,-0.00204418,-0.01161200,-0.0
 0655224,0.00823114,0.00983561,0.01480505,-0.02045671,0.03816884,-0.019
 04260,0.01001342,-0.00016961,-0.00005224,-0.00015120,0.00049395,0.0002
 2981,0.00090645,0.00011523,0.00069282,-0.00009401,-0.00086562,-0.00088
 444,0.00004974,0.07611048,0.32745710,-0.09538082,0.09734488,0.06566930
 ,-0.00022811,-0.02003971,-0.00861675,0.00044648,-0.00312421,-0.0054333
 0,-0.05142340,0.03078690,0.03638350,0.02933072,0.03842063,-0.05131221,
 0.07986809,-0.04480520,0.02939107,-0.00067649,0.00031504,-0.00055926,-
 0.00012019,-0.00030153,0.00004455,-0.00125206,-0.00005014,0.00117286,-
 0.00146879,-0.00136024,0.00040386,0.21677168,-0.28529340,0.44620978,0.
 01672955,-0.01274045,-0.01031296,0.00177774,0.00217064,0.00024075,-0.0
 0046734,0.00040038,0.00107461,0.01278737,-0.01018386,-0.01613179,-0.00
 838056,-0.01101695,0.01981125,-0.02326585,0.01012007,-0.00463649,0.000
 15592,-0.00058368,0.00038369,0.00046642,0.00040030,0.00085619,0.001823
 70,0.00083276,-0.00172546,-0.00008691,0.00003147,-0.00028295,-0.053103
 93,0.01911298,0.02154807,0.36857995,-0.04564935,0.04368352,0.01995564,
 0.00210223,-0.00696098,-0.00269148,-0.00097292,-0.00398526,-0.00571729
 ,-0.03918050,0.02585643,0.02886183,0.02893198,0.02653234,-0.03450490,0
 .03414598,-0.03233964,0.02290851,-0.00044759,-0.00009450,-0.00017811,-
 0.00005082,0.00041214,0.00083065,0.00037482,0.00128324,0.00025871,-0.0
 0072772,-0.00064030,0.00010581,0.03251394,-0.15854600,0.11636705,0.200
 65695,0.35576650,0.03860855,-0.03781214,-0.05178194,0.00042063,0.00299
 442,0.00213971,-0.00116901,-0.00031946,0.00126867,0.01427330,-0.007903
 42,-0.01050323,-0.00435993,-0.01090392,0.01400512,-0.02594073,0.006757
 85,-0.00938111,0.00026951,-0.00038045,0.00029329,0.00037020,0.00020150
 ,0.00058982,0.00110849,0.00136622,-0.00044783,0.00046754,0.00038399,-0
 .00037229,-0.04084194,0.20621258,-0.28241030,0.03213254,-0.24172865,0.
 56289170,-0.00320815,0.00280828,0.00993352,-0.00248379,-0.00045487,-0.
 00019234,0.00107844,-0.00085918,-0.00118149,-0.00408541,0.00028478,0.0
 0629570,-0.00222604,0.00408394,-0.00734682,0.01253948,0.00146998,0.000
 48199,-0.00020406,0.00058620,-0.00044822,-0.00047562,-0.00065993,-0.00
 122037,-0.00202257,-0.00147863,0.00151816,0.00024381,0.00016566,0.0002
 8302,-0.02724950,-0.01027436,-0.07038010,-0.16967787,-0.05360442,-0.09
 153667,0.30513950,0.00067700,-0.00095122,0.00347073,-0.00157492,0.0000
 5017,0.00002075,0.00044026,-0.00068556,-0.00080968,-0.00091142,-0.0034
 5764,-0.00119295,-0.00280154,-0.00077531,-0.00203531,0.00447339,0.0039
 5166,-0.00055924,-0.00012516,0.00038078,-0.00024408,-0.00031792,-0.000
 11714,-0.00041065,-0.00116900,-0.00086593,0.00091661,0.00022640,0.0001
 1452,0.00024237,-0.00483102,-0.00144206,-0.00808006,-0.05057178,-0.053
 91575,-0.00987573,0.14033949,0.22145282,-0.00155273,0.00038561,0.00413
 314,-0.00126703,-0.00025270,-0.00010600,0.00036510,-0.00044347,-0.0006
 2684,-0.00212599,-0.00228070,0.00109279,-0.00147970,0.00035835,-0.0032
 2831,0.00496457,0.00134078,0.00003653,-0.00012276,0.00032674,-0.000241
 05,-0.00024501,-0.00012915,-0.00043396,-0.00083894,-0.00022450,0.00085
 912,0.00011322,0.00008614,0.00018933,-0.04319962,0.00472736,-0.0679157
 1,-0.10374955,-0.02031788,-0.12720415,0.10822093,-0.08775987,0.3349372
 5,0.00325121,-0.00507029,-0.00232800,0.00044179,-0.00007440,-0.0000560
 9,-0.00048492,-0.00000128,0.00014566,0.00216674,-0.00026288,-0.0024984
 0,0.00084916,-0.00147310,0.00177778,-0.00216861,0.00190351,0.00048915,
 0.00010644,0.00009838,0.00008790,-0.00058221,0.00040390,-0.00010834,-0
 .00029855,-0.00106901,-0.00028465,0.00011661,0.00001164,0.00016915,-0.
 12649934,-0.09164805,0.00374421,-0.02383906,-0.04175826,0.01712506,0.0
 2044725,0.01716079,-0.00668846,0.28881221,0.00077118,-0.01457261,-0.00
 758891,0.00067799,-0.00050684,-0.00050893,-0.00080896,0.00010645,0.000
 40454,0.00355051,-0.00139191,-0.00411657,0.00032710,-0.00236246,0.0037
 6087,-0.00411358,-0.00079302,-0.00276551,0.00015594,0.00011636,0.00015
 323,-0.00052027,0.00045467,0.00013288,-0.00015919,-0.00018167,0.000177
 20,-0.00004228,-0.00011483,0.00027781,-0.10216348,-0.14468640,0.032824
 41,-0.03794431,-0.04848631,0.02981739,0.01028643,-0.01131394,0.0319570
 1,0.13147710,0.28224574,0.00042569,-0.00856205,-0.00317392,0.00040122,
 -0.00051782,-0.00052673,-0.00029174,0.00009079,0.00036853,0.00249993,-
 0.00156161,-0.00208079,-0.00045082,-0.00140863,0.00282713,-0.00302056,
 -0.00008796,-0.00134365,0.00009178,0.00002298,0.00009340,-0.00024233,0
 .00007255,-0.00007465,0.00001018,0.00041558,-0.00009253,-0.00006317,-0
 .00001154,0.00005713,-0.00234075,0.02897010,-0.04045525,0.00852283,0.0
 2988735,-0.02307785,0.01291807,0.04676118,-0.04615216,0.10957001,-0.10
 410503,0.28683840,0.00087241,-0.00034814,-0.00212792,0.00035488,0.0002
 0869,0.00005172,0.00000264,0.00018041,0.00021227,0.00070910,-0.0003283
 3,-0.00076039,0.00000099,-0.00053173,0.00105815,-0.00194581,-0.0005016
 1,-0.00061014,0.00002441,-0.00011965,0.00006516,0.00028761,0.00008736,
 0.00024420,0.00054679,0.00053526,-0.00003895,-0.00004518,-0.00001891,-
 0.00008003,-0.04255665,-0.01216148,-0.02821189,-0.03827522,-0.03778653
 ,0.01013067,-0.08056301,-0.04942203,0.02759770,-0.10428209,0.00639010,
 -0.07886933,0.47066151,-0.00069787,-0.00124801,-0.00268365,0.00095005,
 -0.00025367,-0.00015232,-0.00029319,0.00019943,0.00032363,0.00078497,-
 0.00025245,-0.00159896,0.00108336,-0.00096175,0.00177588,-0.00338951,-
 0.00165770,-0.00047932,0.00007499,-0.00018403,0.00011848,0.00013145,0.
 00004186,0.00011037,0.00072521,0.00050091,-0.00057316,-0.00010571,-0.0
 0006807,-0.00010489,-0.01199873,0.01547255,-0.01845753,-0.04704879,-0.
 03330382,-0.01482286,-0.03865073,-0.10942184,0.06301842,0.00360677,-0.
 06830732,0.02648563,0.03468529,0.41719337,-0.00060224,0.00033903,0.001
 84271,-0.00092011,0.00015988,0.00019774,0.00047585,-0.00027301,-0.0004
 9266,-0.00189342,0.00028472,0.00218335,-0.00142737,0.00062365,-0.00260
 094,0.00373819,0.00105781,-0.00008600,-0.00010879,0.00010898,-0.000165
 84,0.00023156,-0.00021775,-0.00013865,-0.00048476,-0.00076605,0.000253
 07,0.00011186,0.00004342,0.00000426,-0.03639476,-0.03601780,-0.0190080
 7,0.02164074,0.00044197,0.03382398,0.01341004,0.05017924,-0.10776872,-
 0.06896355,0.03703267,-0.14368122,0.02421387,0.04786316,0.37265159,0.0
 0000044,0.00002973,-0.00038086,0.00011374,0.00006676,0.00002813,-0.000
 00490,0.00005535,0.00006090,-0.00002138,0.00007978,-0.00013574,0.00007
 013,-0.00012562,0.00013977,-0.00053766,-0.00033661,-0.00011598,0.00000
 709,-0.00003608,0.00001533,0.00015628,0.00002906,0.00006675,0.00025299
 ,0.00009690,-0.00011774,-0.00001142,-0.00000656,-0.00002730,-0.0015245
 0,0.00040836,-0.00004955,-0.00172706,-0.00055433,0.00018117,-0.0210584
 6,-0.00750653,0.01596418,-0.02735759,0.01029620,-0.01178861,-0.1667420
 0,0.05548561,0.04547776,0.21925374,0.00007344,-0.00011893,0.00030735,-
 0.00011511,0.00000416,0.00004496,0.00005121,-0.00000171,-0.00001861,0.
 00011031,-0.00010987,0.00015190,-0.00017893,0.00004524,-0.00009816,0.0
 0041159,0.00018604,-0.00019921,-0.00000263,0.00000101,-0.00001676,-0.0
 0006364,-0.00012406,-0.00010832,-0.00013018,-0.00013446,-0.00011598,0.
 00002048,0.00000876,-0.00001945,0.00077916,-0.00159119,-0.00082848,0.0
 0011493,0.00021154,0.00454996,-0.02264364,-0.00183376,0.00776615,0.008
 13191,0.00343504,0.00531672,0.06085185,-0.05800494,-0.02327988,-0.0628
 1622,0.06484473,0.00040598,-0.00027201,-0.00009990,-0.00005565,0.00006
 751,0.00005649,0.00003244,0.00000521,-0.00001584,0.00005102,-0.0000887
 5,0.00004803,-0.00007755,-0.00009594,0.00000984,0.00000396,-0.00003996
 ,-0.00016027,-0.00000320,-0.00000803,-0.00000883,-0.00001421,-0.000028
 46,-0.00001042,-0.00010883,-0.00016674,-0.00022110,0.00001598,0.000017
 73,-0.00002279,-0.00142355,0.00480190,-0.00040060,0.00085506,-0.000719
 56,-0.00359455,0.02017245,0.00734682,-0.00452135,-0.02613148,0.0039095
 3,-0.00382454,0.04873126,-0.02196207,-0.04853661,-0.05286225,0.0169415
 0,0.06088157,-0.00029857,0.00006012,0.00018643,-0.00000198,-0.00006090
 ,-0.00002456,-0.00000692,-0.00000675,-0.00001027,-0.00006752,0.0000265
 3,0.00000495,0.00002092,0.00009607,-0.00001307,0.00019439,0.00024871,0
 .00027448,0.00000145,-0.00000306,-0.00000377,-0.00000708,-0.00003429,-
 0.00002201,-0.00002958,-0.00004995,-0.00006660,-0.00000070,-0.00000575
 ,-0.00000680,-0.00029121,0.00007756,-0.00238653,-0.00025496,-0.0013999
 3,0.00066807,-0.00147073,-0.01718295,-0.00276397,-0.00455269,-0.012803
 50,-0.01730136,-0.03458612,0.00851083,0.00573054,-0.00039702,0.0157889
 0,0.01058653,0.04204289,0.00014924,-0.00003994,-0.00030015,0.00005995,
 0.00006822,0.00006916,0.00001571,0.00003618,0.00001737,-0.00006234,0.0
 0003204,-0.00001829,0.00002018,0.00005070,0.00012309,-0.00022479,-0.00
 003351,0.00005943,-0.00000249,-0.00003899,0.00000031,0.00005029,-0.000
 05282,-0.00000621,0.00006495,0.00001192,-0.00008285,-0.00000653,-0.000
 00422,-0.00003905,-0.00085057,-0.00126374,0.00204433,0.00059518,-0.003
 06076,0.00044142,-0.01280701,-0.03070541,-0.00144694,-0.00179571,0.003
 96139,-0.00886177,0.00316777,-0.15763233,-0.07961482,0.00490560,-0.006
 81701,-0.00925752,0.00716059,0.19537930,-0.00021194,-0.00003553,-0.000
 13631,0.00008726,-0.00003935,-0.00001103,-0.00001964,0.00006751,0.0000
 5723,0.00017597,-0.00003739,-0.00018903,0.00004346,-0.00010402,0.00015
 629,-0.00026409,0.00013967,0.00012241,0.00000876,-0.00002906,0.0000136
 1,0.00003520,0.00000057,0.00002481,0.00005955,-0.00000669,-0.00009045,
 -0.00001383,-0.00001377,-0.00002153,0.00113834,0.00008798,-0.00408151,
 -0.00196878,0.00291300,-0.00238822,0.00622829,0.00939360,0.00856228,-0
 .01666890,-0.01860554,-0.02368217,0.00238845,-0.08047194,-0.08670321,0
 .00359661,-0.01011713,0.00011445,0.00537700,0.09700328,0.10803872,-0.0
 0326597,0.00299407,0.00284794,-0.00023109,-0.00047519,-0.00016249,-0.0
 0015864,-0.00010065,-0.00002681,-0.00441184,0.00385372,0.00446966,0.00
 136656,0.00191766,-0.00244209,0.00296544,-0.00184549,0.00139272,-0.000
 04298,0.00005861,-0.00006714,-0.00011795,0.00010109,0.00002174,-0.0001
 9133,0.00000133,0.00024067,-0.00001320,-0.00005037,0.00007201,0.003570
 03,-0.00256735,-0.00092096,-0.08352545,-0.07731410,0.05044355,-0.02654
 669,-0.02593723,0.00492017,0.00266990,0.00142596,-0.00225556,-0.002295
 74,-0.00052594,-0.00515352,-0.00015284,-0.00051113,0.00036801,-0.00019
 296,-0.00032997,0.00023666,0.10957131,0.00407902,-0.00424598,-0.000163
 63,-0.00097203,0.00054964,0.00044545,0.00016613,-0.00041329,-0.0004941
 8,0.00265233,-0.00250605,-0.00064200,-0.00267272,-0.00107035,-0.000234
 73,0.00020879,0.00238912,-0.00199716,-0.00003959,0.00010235,-0.0002180
 4,0.00002494,-0.00017580,-0.00019368,-0.00045661,-0.00019170,0.0004311
 4,0.00017544,0.00009226,0.00001626,-0.00764078,-0.01014396,0.01371026,
 -0.07306077,-0.11445619,0.06692206,-0.01964968,-0.01231821,-0.00170211
 ,-0.00039780,0.00242120,0.00193913,-0.00154493,0.00165946,-0.00082498,
 -0.00002021,-0.00007529,-0.00006070,-0.00011776,-0.00024807,0.00029287
 ,0.09962936,0.13833751,0.00264857,-0.00216632,-0.00252555,0.00013386,0
 .00040981,0.00017031,0.00006113,-0.00026789,-0.00033772,0.00462646,-0.
 00358277,-0.00441378,-0.00108454,-0.00163074,0.00216604,-0.00249443,0.
 00146363,-0.00116667,0.00000974,-0.00009704,0.00006658,0.00008168,-0.0
 0008670,0.00002803,0.00014748,-0.00000903,-0.00022375,-0.00000392,0.00
 001486,-0.00007303,0.01142251,0.02091120,-0.01059432,0.05064808,0.0704
 4200,-0.07626690,-0.00779128,-0.01044796,0.00872870,-0.00055946,0.0026
 0321,-0.00200472,-0.00337857,0.00064892,-0.00258452,0.00002380,-0.0002
 9202,0.00015545,-0.00018120,-0.00009986,0.00043251,-0.05371523,-0.0776
 9319,0.08889126,-0.01194055,0.01442132,0.00767535,-0.00020039,-0.00039
 393,-0.00049206,-0.00000702,-0.00018568,-0.00037449,-0.00319827,0.0018
 5870,0.00241201,0.00151641,0.00244089,-0.00338983,0.00503102,-0.002165
 86,0.00160149,-0.00002738,0.00008580,-0.00007218,-0.00009186,0.0000326
 1,-0.00001382,-0.00021486,0.00002517,0.00028934,-0.00005818,-0.0001545
 5,0.00006962,-0.13328214,0.03094103,-0.10095177,0.00150730,-0.00009236
 ,-0.00116340,0.00100071,-0.00152505,0.00131719,-0.02877960,-0.00706986
 ,-0.01785180,-0.00200117,-0.00306505,0.00075426,-0.00028030,0.00014692
 ,-0.00050693,-0.00010871,-0.00005003,-0.00018615,0.00052450,-0.0002415
 5,-0.00012759,0.17004532,0.01518671,-0.01420749,-0.00809344,0.00048291
 ,-0.00155415,-0.00060950,-0.00018374,0.00030903,0.00039590,0.00394969,
 -0.00218904,-0.00310539,-0.00164042,-0.00295796,0.00395649,-0.00564048
 ,0.00226694,-0.00221365,0.00005598,-0.00006316,0.00002999,-0.00001951,
 0.00009605,0.00009020,0.00013558,-0.00000991,-0.00024637,0.00004936,-0
 .00002116,-0.00008145,0.03687908,-0.03526689,0.05054086,0.00904699,0.0
 0200070,0.00465620,0.00099853,0.00183732,0.00460868,-0.01953944,-0.000
 08844,-0.01502418,-0.00336790,-0.00385469,0.00303368,-0.00004442,0.000
 08085,-0.00039767,-0.00030015,0.00038893,-0.00043027,-0.00019844,0.000
 72917,0.00038410,-0.03509669,0.05287664,0.00744816,-0.00699696,-0.0027
 6064,0.00004984,-0.00034732,-0.00005021,-0.00034532,0.00022380,0.00023
 055,0.00354323,-0.00175746,-0.00319525,-0.00106541,-0.00257885,0.00308
 790,-0.00442619,0.00141981,-0.00186966,0.00007536,0.00001205,0.0000060
 2,-0.00014619,0.00026121,0.00014936,0.00002288,-0.00006982,0.00000219,
 0.00012678,-0.00015940,0.00005525,-0.08790460,0.03515299,-0.08771553,-
 0.01928212,0.01256253,-0.02769555,0.00121289,0.00332207,0.00016071,-0.
 00922476,-0.00565987,-0.00011278,-0.00072521,0.00078460,0.00101595,-0.
 00008902,0.00002391,0.00016423,-0.00004307,-0.00002040,-0.00022794,0.0
 0000943,0.00120252,-0.00042031,0.11100802,-0.03713802,0.11887695,-0.03
 026411,0.00178987,-0.00396739,-0.17372229,0.07844897,0.00901903,-0.003
 64318,0.00798011,-0.00513915,0.00010076,-0.00074310,-0.00117911,-0.000
 63901,-0.00077954,0.00046458,-0.00174858,0.00091346,-0.00134721,0.0000
 4066,0.00011437,0.00013330,-0.00005402,0.00014792,0.00001386,-0.000103
 69,-0.00012576,-0.00001074,-0.00528529,0.00742466,0.00636332,-0.000846
 42,-0.00015807,0.00089345,-0.00055355,0.00066201,-0.00065143,0.0002766
 0,0.00019205,0.00019683,0.00003878,0.00026224,0.00006458,-0.00006544,-
 0.00008417,0.00002582,-0.00001532,-0.00001567,-0.00003192,0.00000509,-
 0.00003316,-0.00001340,0.00019422,-0.00005147,-0.00011648,0.00039788,-
 0.00065109,-0.00017762,0.21515099,-0.01125515,0.00593943,0.00172643,0.
 07912812,-0.07892163,-0.00401010,0.01784693,-0.01563353,0.00716723,0.0
 0021370,-0.00061468,0.00050869,-0.00057334,-0.00015192,-0.00033552,-0.
 00087207,0.00003891,-0.00126639,0.00042216,-0.00105805,0.00138557,0.00
 004883,0.00009975,-0.00000306,-0.00010926,-0.00006079,-0.00009445,0.01
 131739,-0.00385416,-0.00686172,-0.00110605,-0.00022920,0.00018069,0.00
 012724,0.00061301,-0.00026842,-0.00022138,-0.00016009,-0.00005478,0.00
 010877,-0.00004184,0.00010466,0.00003189,0.00013741,-0.00018086,0.0000
 0950,-0.00001402,0.00000980,0.00000013,-0.00000247,0.00000647,-0.00000
 006,-0.00008306,-0.00002963,0.00009444,-0.00030657,-0.00027617,-0.0951
 5606,0.09390039,-0.00816038,-0.00079878,0.00249107,0.01040012,-0.00455
 749,-0.03139511,-0.01367491,0.01462108,-0.00276149,-0.00011848,-0.0002
 1784,-0.00087900,-0.00064046,0.00001017,-0.00017364,0.00055783,0.00065
 405,-0.00080183,-0.00037706,0.00100535,-0.00142384,-0.00002026,0.00012
 814,0.00009319,-0.00011839,-0.00000546,0.00018876,0.01757917,-0.012544
 04,-0.00497931,-0.00093193,-0.00114832,-0.00081367,0.00020726,0.000011
 53,-0.00012276,-0.00023017,-0.00008328,-0.00016844,0.00031046,0.000250
 29,0.00012359,0.00006003,0.00012447,-0.00015865,0.00000297,-0.00002209
 ,-0.00001375,-0.00000795,-0.00001618,0.00000012,-0.00011046,-0.0001704
 8,-0.00006532,0.00000832,-0.00038839,0.00023213,-0.00444192,0.00251372
 ,0.04034102,-0.00000977,-0.00079968,-0.00092352,0.00301057,-0.00252335
 ,0.00203553,-0.13553706,0.00226818,0.09140549,-0.03015765,-0.00686751,
 0.01123484,-0.00143748,-0.00156059,0.00142657,-0.00089223,-0.00000573,
 -0.00074743,-0.00357005,0.00537172,0.00833700,-0.00013903,-0.00008040,
 -0.00012992,0.00002045,-0.00002516,0.00007637,0.00000549,0.00063954,-0
 .00036030,-0.00021847,0.00018264,0.00086620,-0.00068273,0.00016243,-0.
 00054484,0.00055273,0.00036742,0.00037700,-0.00005038,0.00