 Default is to use a total of   8 processors:
                                8 via shared-memory
                                1 via Linda
 Entering Link 1 = C:\G16W\l1.exe PID=     18236.
  
 Copyright (c) 1988-2019, Gaussian, Inc.  All Rights Reserved.
  
 This is part of the Gaussian(R) 16 program.  It is based on
 the Gaussian(R) 09 system (copyright 2009, Gaussian, Inc.),
 the Gaussian(R) 03 system (copyright 2003, Gaussian, Inc.),
 the Gaussian(R) 98 system (copyright 1998, Gaussian, Inc.),
 the Gaussian(R) 94 system (copyright 1995, Gaussian, Inc.),
 the Gaussian 92(TM) system (copyright 1992, Gaussian, Inc.),
 the Gaussian 90(TM) system (copyright 1990, Gaussian, Inc.),
 the Gaussian 88(TM) system (copyright 1988, Gaussian, Inc.),
 the Gaussian 86(TM) system (copyright 1986, Carnegie Mellon
 University), and the Gaussian 82(TM) system (copyright 1983,
 Carnegie Mellon University). Gaussian is a federally registered
 trademark of Gaussian, Inc.
  
 This software contains proprietary and confidential information,
 including trade secrets, belonging to Gaussian, Inc.
  
 This software is provided under written license and may be
 used, copied, transmitted, or stored only in accord with that
 written license.
  
 The following legend is applicable only to US Government
 contracts under FAR:
  
                    RESTRICTED RIGHTS LEGEND
  
 Use, reproduction and disclosure by the US Government is
 subject to restrictions as set forth in subparagraphs (a)
 and (c) of the Commercial Computer Software - Restricted
 Rights clause in FAR 52.227-19.
  
 Gaussian, Inc.
 340 Quinnipiac St., Bldg. 40, Wallingford CT 06492
  
  
 ---------------------------------------------------------------
 Warning -- This program may not be used in any manner that
 competes with the business of Gaussian, Inc. or will provide
 assistance to any competitor of Gaussian, Inc.  The licensee
 of this program is prohibited from giving any competitor of
 Gaussian, Inc. access to this program.  By using this program,
 the user acknowledges that Gaussian, Inc. is engaged in the
 business of creating and licensing software in the field of
 computational chemistry and represents and warrants to the
 licensee that it is not a competitor of Gaussian, Inc. and that
 it will not use this program in any manner prohibited above.
 ---------------------------------------------------------------
  

 Cite this work as:
 Gaussian 16, Revision C.01,
 M. J. Frisch, G. W. Trucks, H. B. Schlegel, G. E. Scuseria, 
 M. A. Robb, J. R. Cheeseman, G. Scalmani, V. Barone, 
 G. A. Petersson, H. Nakatsuji, X. Li, M. Caricato, A. V. Marenich, 
 J. Bloino, B. G. Janesko, R. Gomperts, B. Mennucci, H. P. Hratchian, 
 J. V. Ortiz, A. F. Izmaylov, J. L. Sonnenberg, D. Williams-Young, 
 F. Ding, F. Lipparini, F. Egidi, J. Goings, B. Peng, A. Petrone, 
 T. Henderson, D. Ranasinghe, V. G. Zakrzewski, J. Gao, N. Rega, 
 G. Zheng, W. Liang, M. Hada, M. Ehara, K. Toyota, R. Fukuda, 
 J. Hasegawa, M. Ishida, T. Nakajima, Y. Honda, O. Kitao, H. Nakai, 
 T. Vreven, K. Throssell, J. A. Montgomery, Jr., J. E. Peralta, 
 F. Ogliaro, M. J. Bearpark, J. J. Heyd, E. N. Brothers, K. N. Kudin, 
 V. N. Staroverov, T. A. Keith, R. Kobayashi, J. Normand, 
 K. Raghavachari, A. P. Rendell, J. C. Burant, S. S. Iyengar, 
 J. Tomasi, M. Cossi, J. M. Millam, M. Klene, C. Adamo, R. Cammi, 
 J. W. Ochterski, R. L. Martin, K. Morokuma, O. Farkas, 
 J. B. Foresman, and D. J. Fox, Gaussian, Inc., Wallingford CT, 2019.
 
 ******************************************
 Gaussian 16:  EM64W-G16RevC.01 30-May-2019
                12-Nov-2025 
 ******************************************
 %chk=C:\Users\al6323\OneDrive - Imperial College London\Desktop\TSR20251111\TS_g
 uess_IRC.chk
 Default route: MaxDisk=10GB
 ----------------------------------------------------------------------
 # opt=(calcfc,tight,modredundant,maxcycles=200,noeigen) b3lyp/6-31g(d)
  nosymm scf=tight
 ----------------------------------------------------------------------
 1/6=200,7=10,10=4,11=1,18=120,19=15,26=3,38=1/1,3;
 2/9=110,12=2,15=1,17=6,18=5,40=1/2;
 3/5=1,6=6,7=1,11=2,25=1,30=1,71=2,74=-5,140=1/1,2,3;
 4//1;
 5/5=2,32=2,38=5/2;
 8/6=4,10=90,11=11/1;
 11/6=1,8=1,9=11,15=111,16=1,31=1/1,2,10;
 10/6=1,13=1,31=1/2;
 6/7=2,8=2,9=2,10=2,28=1/1;
 7/10=1,25=1,30=1/1,2,3,16;
 1/6=200,7=10,10=4,11=1,18=20,19=15,26=3/3(2);
 2/9=110,15=1/2;
 99//99;
 2/9=110,15=1/2;
 3/5=1,6=6,7=1,11=2,25=1,30=1,71=1,74=-5/1,2,3;
 4/5=5,16=3,69=1/1;
 5/5=2,32=2,38=5/2;
 7/30=1/1,2,3,16;
 1/6=200,7=10,11=1,18=20,19=15,26=3/3(-5);
 2/9=110,15=1/2;
 6/7=2,8=2,9=2,10=2,19=2,28=1/1;
 99/9=1/99;
 ----------
 TS IRC PM6
 ----------
 Symbolic Z-matrix:
 Charge =  0 Multiplicity = 1
 C                    -0.67      1.16      0. 
 C                     0.        0.        0. 
 C                     1.47      0.        0. 
 C                     2.14      1.16      0. 
 C                     1.405     1.16      2.1 
 C                     0.065     1.16      2.1 
 H                    -1.231     2.095     0. 
 H                    -1.43      0.38      0. 
 H                    -0.545    -0.944     0. 
 H                     2.015    -0.944     0. 
 H                     2.701     2.095     0. 
 H                     2.9       0.38      0. 
 H                     1.95      2.104     2.1 
 H                     1.95      0.216     2.1 
 H                    -0.48      2.104     2.1 
 H                    -0.48      0.216     2.1 
 
 Add virtual bond connecting atoms C5         and C4         Dist= 4.20D+00.
 Add virtual bond connecting atoms C6         and C1         Dist= 4.20D+00.
 Add virtual bond connecting atoms H13        and C4         Dist= 4.37D+00.
 Add virtual bond connecting atoms H13        and H11        Dist= 4.21D+00.
 Add virtual bond connecting atoms H14        and C3         Dist= 4.09D+00.
 The following ModRedundant input section has been read:
 B       4       5 F                                                           
 B       1       6 F                                                           
 

 GradGradGradGradGradGradGradGradGradGradGradGradGradGradGradGradGradGrad
 Berny optimization.
 Initialization pass.
                           ----------------------------
                           !    Initial Parameters    !
                           ! (Angstroms and Degrees)  !
 --------------------------                            --------------------------
 ! Name  Definition              Value          Derivative Info.                !
 --------------------------------------------------------------------------------
 ! R1    R(1,2)                  1.3396         calculate D2E/DX2 analytically  !
 ! R2    R(1,6)                  2.2249         frozen, calculate D2E/DX2 analyt!
 ! R3    R(1,7)                  1.0904         calculate D2E/DX2 analytically  !
 ! R4    R(1,8)                  1.089          calculate D2E/DX2 analytically  !
 ! R5    R(2,3)                  1.47           calculate D2E/DX2 analytically  !
 ! R6    R(2,9)                  1.09           calculate D2E/DX2 analytically  !
 ! R7    R(3,4)                  1.3396         calculate D2E/DX2 analytically  !
 ! R8    R(3,10)                 1.09           calculate D2E/DX2 analytically  !
 ! R9    R(3,14)                 2.165          calculate D2E/DX2 analytically  !
 ! R10   R(4,5)                  2.2249         frozen, calculate D2E/DX2 analyt!
 ! R11   R(4,11)                 1.0904         calculate D2E/DX2 analytically  !
 ! R12   R(4,12)                 1.089          calculate D2E/DX2 analytically  !
 ! R13   R(4,13)                 2.3102         calculate D2E/DX2 analytically  !
 ! R14   R(5,6)                  1.34           calculate D2E/DX2 analytically  !
 ! R15   R(5,13)                 1.09           calculate D2E/DX2 analytically  !
 ! R16   R(5,14)                 1.09           calculate D2E/DX2 analytically  !
 ! R17   R(6,15)                 1.09           calculate D2E/DX2 analytically  !
 ! R18   R(6,16)                 1.09           calculate D2E/DX2 analytically  !
 ! R19   R(11,13)                2.2303         calculate D2E/DX2 analytically  !
 ! A1    A(2,1,6)               80.4896         calculate D2E/DX2 analytically  !
 ! A2    A(2,1,8)               74.2661         calculate D2E/DX2 analytically  !
 ! A3    A(6,1,7)               99.7857         calculate D2E/DX2 analytically  !
 ! A4    A(6,1,8)              103.3289         calculate D2E/DX2 analytically  !
 ! A5    A(7,1,8)              104.7803         calculate D2E/DX2 analytically  !
 ! A6    A(1,2,3)              120.0101         calculate D2E/DX2 analytically  !
 ! A7    A(1,2,9)              119.9907         calculate D2E/DX2 analytically  !
 ! A8    A(3,2,9)              119.9992         calculate D2E/DX2 analytically  !
 ! A9    A(2,3,4)              120.0101         calculate D2E/DX2 analytically  !
 ! A10   A(2,3,10)             119.9992         calculate D2E/DX2 analytically  !
 ! A11   A(2,3,14)             102.8097         calculate D2E/DX2 analytically  !
 ! A12   A(4,3,10)             119.9907         calculate D2E/DX2 analytically  !
 ! A13   A(4,3,14)              78.6217         calculate D2E/DX2 analytically  !
 ! A14   A(10,3,14)             88.599          calculate D2E/DX2 analytically  !
 ! A15   A(3,4,5)               80.4896         calculate D2E/DX2 analytically  !
 ! A16   A(3,4,12)              74.2661         calculate D2E/DX2 analytically  !
 ! A17   A(3,4,13)             108.2221         calculate D2E/DX2 analytically  !
 ! A18   A(5,4,11)              99.7857         calculate D2E/DX2 analytically  !
 ! A19   A(5,4,12)             103.3289         calculate D2E/DX2 analytically  !
 ! A20   A(11,4,12)            104.7803         calculate D2E/DX2 analytically  !
 ! A21   A(12,4,13)            110.4907         calculate D2E/DX2 analytically  !
 ! A22   A(4,5,6)              109.29           calculate D2E/DX2 analytically  !
 ! A23   A(4,5,14)              80.4928         calculate D2E/DX2 analytically  !
 ! A24   A(6,5,13)             119.9992         calculate D2E/DX2 analytically  !
 ! A25   A(6,5,14)             119.9992         calculate D2E/DX2 analytically  !
 ! A26   A(13,5,14)            120.0017         calculate D2E/DX2 analytically  !
 ! A27   A(1,6,5)              109.29           calculate D2E/DX2 analytically  !
 ! A28   A(1,6,15)              80.4928         calculate D2E/DX2 analytically  !
 ! A29   A(1,6,16)              80.4928         calculate D2E/DX2 analytically  !
 ! A30   A(5,6,15)             119.9992         calculate D2E/DX2 analytically  !
 ! A31   A(5,6,16)             119.9992         calculate D2E/DX2 analytically  !
 ! A32   A(15,6,16)            120.0017         calculate D2E/DX2 analytically  !
 ! A33   A(5,13,11)             99.4895         calculate D2E/DX2 analytically  !
 ! A34   A(3,14,5)              88.599          calculate D2E/DX2 analytically  !
 ! A35   L(2,1,7,6,-1)         180.2754         calculate D2E/DX2 analytically  !
 ! A36   L(3,4,11,5,-1)        180.2754         calculate D2E/DX2 analytically  !
 ! A37   L(2,1,7,6,-2)         180.9261         calculate D2E/DX2 analytically  !
 ! A38   L(3,4,11,5,-2)        179.0739         calculate D2E/DX2 analytically  !
 ! D1    D(6,1,2,3)            -73.1391         calculate D2E/DX2 analytically  !
 ! D2    D(6,1,2,9)            106.8609         calculate D2E/DX2 analytically  !
 ! D3    D(8,1,2,3)            180.0            calculate D2E/DX2 analytically  !
 ! D4    D(8,1,2,9)              0.0            calculate D2E/DX2 analytically  !
 ! D5    D(2,1,6,5)             61.4026         calculate D2E/DX2 analytically  !
 ! D6    D(2,1,6,15)           179.9893         calculate D2E/DX2 analytically  !
 ! D7    D(2,1,6,16)           -57.1842         calculate D2E/DX2 analytically  !
 ! D8    D(7,1,6,5)           -119.5235         calculate D2E/DX2 analytically  !
 ! D9    D(7,1,6,15)            -0.9368         calculate D2E/DX2 analytically  !
 ! D10   D(7,1,6,16)           121.8897         calculate D2E/DX2 analytically  !
 ! D11   D(8,1,6,5)            132.6034         calculate D2E/DX2 analytically  !
 ! D12   D(8,1,6,15)          -108.8098         calculate D2E/DX2 analytically  !
 ! D13   D(8,1,6,16)            14.0166         calculate D2E/DX2 analytically  !
 ! D14   D(1,2,3,4)              0.0            calculate D2E/DX2 analytically  !
 ! D15   D(1,2,3,10)           180.0            calculate D2E/DX2 analytically  !
 ! D16   D(1,2,3,14)            84.1274         calculate D2E/DX2 analytically  !
 ! D17   D(9,2,3,4)            180.0            calculate D2E/DX2 analytically  !
 ! D18   D(9,2,3,10)             0.0            calculate D2E/DX2 analytically  !
 ! D19   D(9,2,3,14)           -95.8726         calculate D2E/DX2 analytically  !
 ! D20   D(2,3,4,5)             73.1391         calculate D2E/DX2 analytically  !
 ! D21   D(2,3,4,12)           180.0            calculate D2E/DX2 analytically  !
 ! D22   D(2,3,4,13)            73.1339         calculate D2E/DX2 analytically  !
 ! D23   D(10,3,4,5)          -106.8609         calculate D2E/DX2 analytically  !
 ! D24   D(10,3,4,12)            0.0            calculate D2E/DX2 analytically  !
 ! D25   D(10,3,4,13)         -106.8661         calculate D2E/DX2 analytically  !
 ! D26   D(14,3,4,5)           -25.1945         calculate D2E/DX2 analytically  !
 ! D27   D(14,3,4,12)           81.6663         calculate D2E/DX2 analytically  !
 ! D28   D(14,3,4,13)          -25.1998         calculate D2E/DX2 analytically  !
 ! D29   D(2,3,14,5)           -59.5131         calculate D2E/DX2 analytically  !
 ! D30   D(4,3,14,5)            59.0056         calculate D2E/DX2 analytically  !
 ! D31   D(10,3,14,5)          180.0            calculate D2E/DX2 analytically  !
 ! D32   D(3,4,5,6)            -61.4026         calculate D2E/DX2 analytically  !
 ! D33   D(3,4,5,14)            57.1842         calculate D2E/DX2 analytically  !
 ! D34   D(11,4,5,6)           119.5235         calculate D2E/DX2 analytically  !
 ! D35   D(11,4,5,14)         -121.8897         calculate D2E/DX2 analytically  !
 ! D36   D(12,4,5,6)          -132.6034         calculate D2E/DX2 analytically  !
 ! D37   D(12,4,5,14)          -14.0166         calculate D2E/DX2 analytically  !
 ! D38   D(4,5,6,1)              0.0            calculate D2E/DX2 analytically  !
 ! D39   D(4,5,6,15)           -90.0            calculate D2E/DX2 analytically  !
 ! D40   D(4,5,6,16)            90.0            calculate D2E/DX2 analytically  !
 ! D41   D(13,5,6,1)            90.0            calculate D2E/DX2 analytically  !
 ! D42   D(13,5,6,15)            0.0            calculate D2E/DX2 analytically  !
 ! D43   D(13,5,6,16)          180.0            calculate D2E/DX2 analytically  !
 ! D44   D(14,5,6,1)           -90.0            calculate D2E/DX2 analytically  !
 ! D45   D(14,5,6,15)          180.0            calculate D2E/DX2 analytically  !
 ! D46   D(14,5,6,16)            0.0            calculate D2E/DX2 analytically  !
 ! D47   D(6,5,13,11)         -107.3202         calculate D2E/DX2 analytically  !
 ! D48   D(11,5,13,4)            0.4576         calculate D2E/DX2 analytically  !
 ! D49   D(14,5,13,11)          72.6798         calculate D2E/DX2 analytically  !
 ! D50   D(4,5,14,3)           -30.8653         calculate D2E/DX2 analytically  !
 ! D51   D(6,5,14,3)            75.9973         calculate D2E/DX2 analytically  !
 ! D52   D(13,5,14,3)         -104.0027         calculate D2E/DX2 analytically  !
 --------------------------------------------------------------------------------
 Trust Radius=3.00D-01 FncErr=1.00D-07 GrdErr=1.00D-06 EigMax=2.50D+02 EigMin=1.00D-04
 Number of steps in this run=    100 maximum allowed number of steps=    100.
 GradGradGradGradGradGradGradGradGradGradGradGradGradGradGradGradGradGrad

                          Input orientation:                          
 ---------------------------------------------------------------------
 Center     Atomic      Atomic             Coordinates (Angstroms)
 Number     Number       Type             X           Y           Z
 ---------------------------------------------------------------------
      1          6           0       -0.670000    1.160000    0.000000
      2          6           0        0.000000    0.000000    0.000000
      3          6           0        1.470000    0.000000    0.000000
      4          6           0        2.140000    1.160000    0.000000
      5          6           0        1.405000    1.160000    2.100000
      6          6           0        0.065000    1.160000    2.100000
      7          1           0       -1.231000    2.095000    0.000000
      8          1           0       -1.430000    0.380000    0.000000
      9          1           0       -0.545000   -0.944000    0.000000
     10          1           0        2.015000   -0.944000    0.000000
     11          1           0        2.701000    2.095000    0.000000
     12          1           0        2.900000    0.380000    0.000000
     13          1           0        1.950000    2.104000    2.100000
     14          1           0        1.950000    0.216000    2.100000
     15          1           0       -0.480000    2.104000    2.100000
     16          1           0       -0.480000    0.216000    2.100000
 ---------------------------------------------------------------------
                    Distance matrix (angstroms):
                    1          2          3          4          5
     1  C    0.000000
     2  C    1.339589   0.000000
     3  C    2.434173   1.470000   0.000000
     4  C    2.810000   2.434173   1.339589   0.000000
     5  C    2.952224   2.780220   2.399964   2.224910   0.000000
     6  C    2.224910   2.399964   2.780220   2.952224   1.340000
     7  H    1.090388   2.429894   3.418249   3.498266   3.497531
     8  H    1.089036   1.479628   2.924791   3.654217   3.613257
     9  H    2.107710   1.090028   2.225165   3.411164   3.555182
    10  H    3.411164   2.225165   1.090028   2.107710   3.034620
    11  H    3.498266   3.418249   2.429894   1.090388   2.638909
    12  H    3.654217   2.924791   1.479628   1.089036   2.693218
    13  H    3.487913   3.555182   3.011182   2.310246   1.090028
    14  H    3.487913   2.873875   2.164961   2.310246   1.090028
    15  H    2.310246   3.011182   3.555182   3.487913   2.108165
    16  H    2.310246   2.164961   2.873875   3.487913   2.108165
                    6          7          8          9         10
     6  C    0.000000
     7  H    2.638909   0.000000
     8  H    2.693218   1.726507   0.000000
     9  H    3.034620   3.115464   1.592545   0.000000
    10  H    3.555182   4.446576   3.690664   2.560000   0.000000
    11  H    3.497531   3.932000   4.472850   4.446576   3.115464
    12  H    3.613257   4.472850   4.330000   3.690664   1.592545
    13  H    2.108165   3.811672   4.336655   4.463780   3.701963
    14  H    2.108165   4.249636   3.982624   3.461304   2.399964
    15  H    1.090028   2.230265   2.878311   3.701963   4.463780
    16  H    1.090028   2.916272   2.310713   2.399964   3.461304
                   11         12         13         14         15
    11  H    0.000000
    12  H    1.726507   0.000000
    13  H    2.230265   2.878311   0.000000
    14  H    2.916272   2.310713   1.888000   0.000000
    15  H    3.811672   4.336655   2.430000   3.077246   0.000000
    16  H    4.249636   3.982624   3.077246   2.430000   1.888000
                   16
    16  H    0.000000
 Symmetry turned off by external request.
 Stoichiometry    C6H10
 Framework group  CS[X(C6H10)]
 Deg. of freedom    21
 Full point group                 CS      NOp   2
 Rotational constants (GHZ):           4.3230902           4.0848434           2.6825182
 Standard basis: 6-31G(d) (6D, 7F)
   110 basis functions,   208 primitive gaussians,   110 cartesian basis functions
    23 alpha electrons       23 beta electrons
       nuclear repulsion energy       233.5752898392 Hartrees.
 NAtoms=   16 NActive=   16 NUniq=   16 SFac= 1.00D+00 NAtFMM=   60 NAOKFM=F Big=F
 Integral buffers will be    131072 words long.
 Raffenetti 2 integral format.
 Two-electron integral symmetry is turned off.
 One-electron integrals computed using PRISM.
 NBasis=   110 RedAO= T EigKep=  1.06D-03  NBF=   110
 NBsUse=   110 1.00D-06 EigRej= -1.00D+00 NBFU=   110
 ExpMin= 1.61D-01 ExpMax= 3.05D+03 ExpMxC= 4.57D+02 IAcc=3 IRadAn=         5 AccDes= 0.00D+00
 Harris functional with IExCor=  402 and IRadAn=       5 diagonalized for initial guess.
 HarFok:  IExCor=  402 AccDes= 0.00D+00 IRadAn=         5 IDoV= 1 UseB2=F ITyADJ=14
 ICtDFT=  3500011 ScaDFX=  1.000000  1.000000  1.000000  1.000000
 FoFCou: FMM=F IPFlag=           0 FMFlag=      100000 FMFlg1=           0
         NFxFlg=           0 DoJE=T BraDBF=F KetDBF=T FulRan=T
         wScrn=  0.000000 ICntrl=       500 IOpCl=  0 I1Cent=   200000004 NGrid=           0
         NMat0=    1 NMatS0=      1 NMatT0=    0 NMatD0=    1 NMtDS0=    0 NMtDT0=    0
 Symmetry not used in FoFCou.
 Requested convergence on RMS density matrix=1.00D-08 within 128 cycles.
 Requested convergence on MAX density matrix=1.00D-06.
 Requested convergence on             energy=1.00D-06.
 No special actions if energy rises.
 Integral accuracy reduced to 1.0D-05 until final iterations.
 Initial convergence to 1.0D-05 achieved.  Increase integral accuracy.
 SCF Done:  E(RB3LYP) =  -234.281533173     A.U. after   13 cycles
            NFock= 13  Conv=0.77D-08     -V/T= 2.0064
 DoSCS=F DFT=T ScalE2(SS,OS)=  1.000000  1.000000
 Range of M.O.s used for correlation:     1   110
 NBasis=   110 NAE=    23 NBE=    23 NFC=     0 NFV=     0
 NROrb=    110 NOA=    23 NOB=    23 NVA=    87 NVB=    87
 Symmetrizing basis deriv contribution to polar:
 IMax=3 JMax=2 DiffMx= 0.00D+00
 G2DrvN: will do    17 centers at a time, making    1 passes.
 Calling FoFCou, ICntrl=  3107 FMM=F I1Cent=   0 AccDes= 0.00D+00.
 End of G2Drv F.D. properties file   721 does not exist.
 End of G2Drv F.D. properties file   722 does not exist.
 End of G2Drv F.D. properties file   788 does not exist.
          IDoAtm=1111111111111111
          Differentiating once with respect to nuclear coordinates.
 Keep R1 ints in memory in canonical form, NReq=26109378.
          There are    51 degrees of freedom in the 1st order CPHF.  IDoFFX=6 NUNeed=     0.
     45 vectors produced by pass  0 Test12= 3.92D-15 1.96D-09 XBig12= 1.33D-01 1.34D-01.
 AX will form    45 AO Fock derivatives at one time.
     45 vectors produced by pass  1 Test12= 3.92D-15 1.96D-09 XBig12= 2.23D-02 5.22D-02.
     45 vectors produced by pass  2 Test12= 3.92D-15 1.96D-09 XBig12= 1.61D-04 2.05D-03.
     45 vectors produced by pass  3 Test12= 3.92D-15 1.96D-09 XBig12= 2.73D-07 8.55D-05.
     45 vectors produced by pass  4 Test12= 3.92D-15 1.96D-09 XBig12= 2.43D-10 2.11D-06.
     23 vectors produced by pass  5 Test12= 3.92D-15 1.96D-09 XBig12= 2.07D-13 6.04D-08.
 InvSVY:  IOpt=1 It=  1 EMax= 5.00D-16
 Solved reduced A of dimension   248 with    51 vectors.
 End of Minotr F.D. properties file   721 does not exist.
 End of Minotr F.D. properties file   722 does not exist.
 End of Minotr F.D. properties file   788 does not exist.

 **********************************************************************

            Population analysis using the SCF Density.

 **********************************************************************

 Alpha  occ. eigenvalues --  -10.18815 -10.18783 -10.18325 -10.18324 -10.15510
 Alpha  occ. eigenvalues --  -10.15427  -0.83669  -0.77767  -0.73169  -0.61514
 Alpha  occ. eigenvalues --   -0.56615  -0.53404  -0.50155  -0.47677  -0.45275
 Alpha  occ. eigenvalues --   -0.40953  -0.39577  -0.34480  -0.33439  -0.31493
 Alpha  occ. eigenvalues --   -0.24993  -0.22929  -0.18227
 Alpha virt. eigenvalues --   -0.02045   0.05670   0.06311   0.09301   0.09660
 Alpha virt. eigenvalues --    0.11073   0.12548   0.15383   0.16364   0.18285
 Alpha virt. eigenvalues --    0.19645   0.24137   0.26735   0.30863   0.32204
 Alpha virt. eigenvalues --    0.35191   0.44366   0.46428   0.51832   0.53424
 Alpha virt. eigenvalues --    0.57565   0.57582   0.61486   0.64399   0.64671
 Alpha virt. eigenvalues --    0.66598   0.69512   0.71287   0.73036   0.75810
 Alpha virt. eigenvalues --    0.77773   0.80416   0.81530   0.84268   0.86678
 Alpha virt. eigenvalues --    0.89114   0.90479   0.91800   0.94322   0.94897
 Alpha virt. eigenvalues --    0.97036   1.01414   1.01877   1.05073   1.12213
 Alpha virt. eigenvalues --    1.15536   1.21552   1.30814   1.34357   1.36430
 Alpha virt. eigenvalues --    1.41734   1.51897   1.53747   1.60983   1.62347
 Alpha virt. eigenvalues --    1.68255   1.78232   1.80921   1.86841   1.92513
 Alpha virt. eigenvalues --    1.94846   1.98452   2.04065   2.05848   2.07847
 Alpha virt. eigenvalues --    2.15060   2.17712   2.21761   2.24329   2.31345
 Alpha virt. eigenvalues --    2.36723   2.39140   2.44162   2.52430   2.53219
 Alpha virt. eigenvalues --    2.62466   2.69860   2.77478   2.82859   2.91756
 Alpha virt. eigenvalues --    3.07653   4.20544   4.25443   4.28233   4.35438
 Alpha virt. eigenvalues --    4.45833   4.56419
          Condensed to atoms (all electrons):
               1          2          3          4          5          6
     1  C    5.209988   0.546172  -0.038998  -0.013978  -0.026171  -0.011516
     2  C    0.546172   5.148818   0.466049  -0.038998  -0.047546  -0.073727
     3  C   -0.038998   0.466049   5.148818   0.546172  -0.073727  -0.047546
     4  C   -0.013978  -0.038998   0.546172   5.209988  -0.011516  -0.026171
     5  C   -0.026171  -0.047546  -0.073727  -0.011516   5.111463   0.660670
     6  C   -0.011516  -0.073727  -0.047546  -0.026171   0.660670   5.111463
     7  H    0.381131  -0.024176  -0.001799   0.000435  -0.001776  -0.013958
     8  H    0.305609  -0.126360   0.017761   0.000404   0.004135   0.003518
     9  H   -0.082215   0.416516  -0.052190   0.005933   0.000423  -0.002840
    10  H    0.005933  -0.052190   0.416516  -0.082215  -0.002840   0.000423
    11  H    0.000435  -0.001799  -0.024176   0.381131  -0.013958  -0.001776
    12  H    0.000404   0.017761  -0.126360   0.305609   0.003518   0.004135
    13  H    0.000201   0.002275  -0.006401   0.003249   0.373001  -0.040839
    14  H    0.002729  -0.005780  -0.001600  -0.023644   0.385865  -0.038183
    15  H    0.003249  -0.006401   0.002275   0.000201  -0.040839   0.373001
    16  H   -0.023644  -0.001600  -0.005780   0.002729  -0.038183   0.385865
               7          8          9         10         11         12
     1  C    0.381131   0.305609  -0.082215   0.005933   0.000435   0.000404
     2  C   -0.024176  -0.126360   0.416516  -0.052190  -0.001799   0.017761
     3  C   -0.001799   0.017761  -0.052190   0.416516  -0.024176  -0.126360
     4  C    0.000435   0.000404   0.005933  -0.082215   0.381131   0.305609
     5  C   -0.001776   0.004135   0.000423  -0.002840  -0.013958   0.003518
     6  C   -0.013958   0.003518  -0.002840   0.000423  -0.001776   0.004135
     7  H    0.498796  -0.038230   0.003768  -0.000038   0.000017   0.000007
     8  H   -0.038230   0.721017  -0.057690  -0.001046   0.000007  -0.000120
     9  H    0.003768  -0.057690   0.637366   0.002722  -0.000038  -0.001046
    10  H   -0.000038  -0.001046   0.002722   0.637366   0.003768  -0.057690
    11  H    0.000017   0.000007  -0.000038   0.003768   0.498796  -0.038230
    12  H    0.000007  -0.000120  -0.001046  -0.057690  -0.038230   0.721017
    13  H    0.000093  -0.000035  -0.000009   0.000012  -0.001124   0.000208
    14  H    0.000002  -0.000200   0.000001   0.002676   0.000928  -0.001469
    15  H   -0.001124   0.000208   0.000012  -0.000009   0.000093  -0.000035
    16  H    0.000928  -0.001469   0.002676   0.000001   0.000002  -0.000200
              13         14         15         16
     1  C    0.000201   0.002729   0.003249  -0.023644
     2  C    0.002275  -0.005780  -0.006401  -0.001600
     3  C   -0.006401  -0.001600   0.002275  -0.005780
     4  C    0.003249  -0.023644   0.000201   0.002729
     5  C    0.373001   0.385865  -0.040839  -0.038183
     6  C   -0.040839  -0.038183   0.373001   0.385865
     7  H    0.000093   0.000002  -0.001124   0.000928
     8  H   -0.000035  -0.000200   0.000208  -0.001469
     9  H   -0.000009   0.000001   0.000012   0.002676
    10  H    0.000012   0.002676  -0.000009   0.000001
    11  H   -0.001124   0.000928   0.000093   0.000002
    12  H    0.000208  -0.001469  -0.000035  -0.000200
    13  H    0.586245  -0.040475  -0.009545   0.005629
    14  H   -0.040475   0.584188   0.005629  -0.008986
    15  H   -0.009545   0.005629   0.586245  -0.040475
    16  H    0.005629  -0.008986  -0.040475   0.584188
 Mulliken charges:
               1
     1  C   -0.259327
     2  C   -0.219014
     3  C   -0.219014
     4  C   -0.259327
     5  C   -0.282520
     6  C   -0.282520
     7  H    0.195926
     8  H    0.172491
     9  H    0.126610
    10  H    0.126610
    11  H    0.195926
    12  H    0.172491
    13  H    0.127515
    14  H    0.138318
    15  H    0.127515
    16  H    0.138318
 Sum of Mulliken charges =   0.00000
 Mulliken charges with hydrogens summed into heavy atoms:
               1
     1  C    0.109090
     2  C   -0.092403
     3  C   -0.092403
     4  C    0.109090
     5  C   -0.016686
     6  C   -0.016686
 APT charges:
               1
     1  C   -0.525975
     2  C   -0.534515
     3  C   -0.435905
     4  C   -0.740456
     5  C   -0.740053
     6  C   -0.866219
     7  H    0.637515
     8  H    0.189075
     9  H    0.329868
    10  H    0.454479
    11  H    0.844935
    12  H    0.142874
    13  H    0.525752
    14  H    0.191666
    15  H    0.430271
    16  H    0.096690
 Sum of APT charges =   0.00000
 APT charges with hydrogens summed into heavy atoms:
               1
     1  C    0.300615
     2  C   -0.204647
     3  C    0.018573
     4  C    0.247353
     5  C   -0.022635
     6  C   -0.339259
 Electronic spatial extent (au):  <R**2>=            832.5345
 Charge=              0.0000 electrons
 Dipole moment (field-independent basis, Debye):
    X=              0.0000    Y=              0.1444    Z=             -0.5163  Tot=              0.5361
 Quadrupole moment (field-independent basis, Debye-Ang):
   XX=            -33.6637   YY=            -34.2274   ZZ=            -46.3691
   XY=              0.1061   XZ=             -0.3795   YZ=             -0.9689
 Traceless Quadrupole moment (field-independent basis, Debye-Ang):
   XX=              4.4231   YY=              3.8593   ZZ=             -8.2824
   XY=              0.1061   XZ=             -0.3795   YZ=             -0.9689
 Octapole moment (field-independent basis, Debye-Ang**2):
  XXX=            -74.2284  YYY=            -77.0032  ZZZ=           -105.7214  XYY=            -25.1571
  XXY=            -22.0009  XXZ=            -27.6146  XZZ=            -34.0813  YZZ=            -37.5289
  YYZ=            -26.8911  XYZ=             -0.7121
 Hexadecapole moment (field-independent basis, Debye-Ang**3):
 XXXX=           -441.4622 YYYY=           -259.8948 ZZZZ=           -478.8777 XXXY=            -48.6267
 XXXZ=            -60.4801 YYYX=            -56.5973 YYYZ=            -91.0517 ZZZX=            -77.7052
 ZZZY=           -123.6825 XXYY=            -96.4832 XXZZ=           -153.6648 YYZZ=           -121.3747
 XXYZ=            -32.0726 YYXZ=            -19.7649 ZZXY=            -27.5838
 N-N= 2.335752898392D+02 E-N=-1.009383794667D+03  KE= 2.327862691843D+02
  Exact polarizability:       0.000       0.000       0.000       0.000       0.000       0.000
 Approx polarizability:     137.409       0.000     109.500       0.000      10.444      75.179
 Calling FoFJK, ICntrl=    100127 FMM=F ISym2X=0 I1Cent= 0 IOpClX= 0 NMat=1 NMatS=1 NMatT=0.
 -------------------------------------------------------------------
 Center     Atomic                   Forces (Hartrees/Bohr)
 Number     Number              X              Y              Z
 -------------------------------------------------------------------
      1        6          -0.069261247   -0.034382680   -0.005366599
      2        6           0.097109528   -0.017141964   -0.050563864
      3        6          -0.097109528   -0.017141964   -0.050563864
      4        6           0.069261247   -0.034382680   -0.005366599
      5        6           0.011173257    0.009563329    0.029248451
      6        6          -0.011173257    0.009563329    0.029248451
      7        1           0.031271170    0.003676166   -0.008031405
      8        1          -0.064510567    0.039426118    0.003402545
      9        1           0.009106634   -0.007909964    0.002375620
     10        1          -0.009106634   -0.007909964    0.002375620
     11        1          -0.031271170    0.003676166   -0.008031405
     12        1           0.064510567    0.039426118    0.003402545
     13        1           0.003397231   -0.006270715    0.009602694
     14        1           0.001316619    0.013039709    0.019332558
     15        1          -0.003397231   -0.006270715    0.009602694
     16        1          -0.001316619    0.013039709    0.019332558
 -------------------------------------------------------------------
 Cartesian Forces:  Max     0.097109528 RMS     0.033531028
 FormGI is forming the generalized inverse of G from B-inverse, IUseBI=4.

 GradGradGradGradGradGradGradGradGradGradGradGradGradGradGradGradGradGrad
 Berny optimization.
 Internal  Forces:  Max     0.062725403 RMS     0.018414601
 Search for a local minimum.
 Step number   1 out of a maximum of  100
 All quantities printed in internal units (Hartrees-Bohrs-Radians)
 Mixed Optimization -- RFO/linear search
 Second derivative matrix not updated -- analytic derivatives used.
 ITU=  0
     Eigenvalues ---   -0.00724  -0.00185  -0.00168  -0.00054   0.00126
     Eigenvalues ---    0.00689   0.00995   0.01459   0.01646   0.01856
     Eigenvalues ---    0.02083   0.02263   0.02371   0.03133   0.04135
     Eigenvalues ---    0.04687   0.05028   0.05452   0.06312   0.06747
     Eigenvalues ---    0.08016   0.09241   0.09961   0.11830   0.15311
     Eigenvalues ---    0.16033   0.25358   0.28668   0.30564   0.33593
     Eigenvalues ---    0.34038   0.34202   0.34750   0.34900   0.34987
     Eigenvalues ---    0.35302   0.35817   0.54207   0.56710   0.62800
     Eigenvalues --- 1000.000001000.000001000.000001000.000001000.00000
     Eigenvalues --- 1000.000001000.000001000.000001000.000001000.00000
     Eigenvalues --- 1000.000001000.000001000.000001000.000001000.00000
     Eigenvalues --- 1000.000001000.000001000.000001000.000001000.00000
     Eigenvalues --- 1000.000001000.000001000.000001000.000001000.00000
     Eigenvalues --- 1000.000001000.000001000.000001000.000001000.00000
     Eigenvalues --- 1000.000001000.000001000.000001000.000001000.00000
     Eigenvalues --- 1000.000001000.000001000.000001000.000001000.00000
     Eigenvalues --- 1000.000001000.000001000.000001000.000001000.00000
     Eigenvalues --- 1000.000001000.000001000.000001000.000001000.00000
     Eigenvalues --- 1000.000001000.000001000.000001000.000001000.00000
     Eigenvalues --- 1000.000001000.000001000.000001000.000001000.00000
     Eigenvalues --- 1000.000001000.000001000.000001000.000001000.00000
     Eigenvalues --- 1000.000001000.000001000.000001000.00000
 RFO step:  Lambda=-1.34460243D-01 EMin=-7.23778894D-03
 Linear search not attempted -- first point.
 Maximum step size (   0.300) exceeded in Quadratic search.
    -- Step size scaled by   0.382
 Iteration  1 RMS(Cart)=  0.03653566 RMS(Int)=  0.00181580
 Iteration  2 RMS(Cart)=  0.00160405 RMS(Int)=  0.00091562
 Iteration  3 RMS(Cart)=  0.00000390 RMS(Int)=  0.00091562
 Iteration  4 RMS(Cart)=  0.00000000 RMS(Int)=  0.00091562
 Iteration  1 RMS(Cart)=  0.00005351 RMS(Int)=  0.00003044
 Iteration  2 RMS(Cart)=  0.00001212 RMS(Int)=  0.00003350
 Iteration  3 RMS(Cart)=  0.00000599 RMS(Int)=  0.00003690
 Iteration  4 RMS(Cart)=  0.00000332 RMS(Int)=  0.00003913
 Iteration  5 RMS(Cart)=  0.00000183 RMS(Int)=  0.00004045
 Iteration  6 RMS(Cart)=  0.00000101 RMS(Int)=  0.00004121
 Iteration  7 RMS(Cart)=  0.00000055 RMS(Int)=  0.00004163
 Variable       Old X    -DE/DX   Delta X   Delta X   Delta X     New X
                                 (Linear)    (Quad)   (Total)
    R1        2.53146   0.06273   0.00000   0.03687   0.03716   2.56862
    R2        4.20447   0.05272   0.00000   0.00000   0.00000   4.20447
    R3        2.06053  -0.01294   0.00000  -0.00678  -0.00678   2.05375
    R4        2.05798   0.01678   0.00000   0.01690   0.01690   2.07488
    R5        2.77790  -0.01752   0.00000  -0.05039  -0.05002   2.72788
    R6        2.05985   0.00230   0.00000  -0.00247  -0.00247   2.05738
    R7        2.53146   0.04910   0.00000   0.02777   0.02807   2.55952
    R8        2.05985   0.00230   0.00000  -0.00194  -0.00194   2.05791
    R9        4.09118   0.04013   0.00000   0.09108   0.09194   4.18312
   R10        4.20447   0.02947   0.00000   0.00000  -0.00001   4.20447
   R11        2.06053  -0.01482   0.00000  -0.00538  -0.00516   2.05538
   R12        2.05798   0.01678   0.00000   0.01537   0.01537   2.07335
   R13        4.36573   0.00583   0.00000  -0.00427  -0.00441   4.36132
   R14        2.53223   0.02969   0.00000   0.02819   0.02782   2.56005
   R15        2.05985  -0.00328   0.00000  -0.00438  -0.00453   2.05532
   R16        2.05985  -0.00070   0.00000  -0.00360  -0.00328   2.05657
   R17        2.05985  -0.00373   0.00000  -0.00219  -0.00219   2.05766
   R18        2.05985  -0.01064   0.00000  -0.00684  -0.00684   2.05301
   R19        4.21459  -0.00029   0.00000   0.12077   0.12079   4.33538
    A1        1.40481   0.00784   0.00000   0.05568   0.05604   1.46085
    A2        1.29619   0.05250   0.00000   0.05841   0.06045   1.35664
    A3        1.74159  -0.00679   0.00000   0.01283   0.01275   1.75434
    A4        1.80343   0.01909   0.00000  -0.01880  -0.02165   1.78178
    A5        1.82876  -0.01598   0.00000  -0.05162  -0.05085   1.77791
    A6        2.09457   0.01073   0.00000   0.00346   0.00265   2.09722
    A7        2.09423   0.00683   0.00000   0.00084   0.00013   2.09437
    A8        2.09438  -0.01756   0.00000  -0.00430  -0.00497   2.08941
    A9        2.09457   0.02137   0.00000   0.01177   0.01091   2.10548
   A10        2.09438  -0.01727   0.00000  -0.00780  -0.00827   2.08611
   A11        1.79437   0.00445   0.00000   0.00578   0.00572   1.80009
   A12        2.09423  -0.00410   0.00000  -0.00397  -0.00503   2.08920
   A13        1.37221  -0.01706   0.00000  -0.04474  -0.04420   1.32801
   A14        1.54635   0.00807   0.00000  -0.02448  -0.02427   1.52207
   A15        1.40481   0.00181   0.00000   0.03896   0.03926   1.44407
   A16        1.29619   0.05178   0.00000   0.06678   0.07104   1.36722
   A17        1.88883  -0.00060   0.00000   0.03822   0.03848   1.92732
   A18        1.74159  -0.00366   0.00000   0.06135   0.06152   1.80311
   A19        1.80343   0.01610   0.00000  -0.06404  -0.06705   1.73638
   A20        1.82876  -0.01945   0.00000  -0.05261  -0.04913   1.77963
   A21        1.92843  -0.00558   0.00000  -0.09845  -0.10117   1.82725
   A22        1.90747   0.01767   0.00000   0.00729   0.00705   1.91452
   A23        1.40486  -0.00671   0.00000  -0.00870  -0.00875   1.39612
   A24        2.09438   0.00776   0.00000   0.00471   0.00507   2.09945
   A25        2.09438   0.00074   0.00000   0.00311   0.00301   2.09739
   A26        2.09442  -0.00850   0.00000  -0.00783  -0.00808   2.08634
   A27        1.90747  -0.00458   0.00000  -0.01053  -0.01086   1.89661
   A28        1.40486   0.00887   0.00000   0.03459   0.03500   1.43986
   A29        1.40486   0.00421   0.00000   0.00587   0.00596   1.41082
   A30        2.09438  -0.00471   0.00000  -0.01273  -0.01272   2.08166
   A31        2.09438   0.00806   0.00000   0.01370   0.01353   2.10791
   A32        2.09442  -0.00335   0.00000  -0.00098  -0.00139   2.09303
   A33        1.73642   0.00844   0.00000  -0.00340  -0.00436   1.73206
   A34        1.54635   0.00712   0.00000   0.01175   0.01169   1.55804
   A35        3.14640   0.00105   0.00000   0.06852   0.06879   3.21519
   A36        3.14640  -0.00185   0.00000   0.10031   0.10077   3.24717
   A37        3.15776  -0.03903   0.00000  -0.02821  -0.02787   3.12988
   A38        3.12543   0.03369   0.00000   0.04567   0.04462   3.17005
    D1       -1.27652   0.01339   0.00000   0.03288   0.03377  -1.24275
    D2        1.86507   0.00034   0.00000  -0.03852  -0.03754   1.82754
    D3        3.14159   0.00933   0.00000   0.08745   0.08607  -3.05553
    D4        0.00000  -0.00372   0.00000   0.01605   0.01476   0.01476
    D5        1.07168  -0.02280   0.00000  -0.03282  -0.03273   1.03895
    D6        3.14141  -0.02506   0.00000  -0.03567  -0.03551   3.10590
    D7       -0.99805  -0.03263   0.00000  -0.04914  -0.04880  -1.04685
    D8       -2.08608   0.01622   0.00000  -0.00461  -0.00485  -2.09093
    D9       -0.01635   0.01396   0.00000  -0.00746  -0.00763  -0.02398
   D10        2.12738   0.00639   0.00000  -0.02093  -0.02092   2.10645
   D11        2.31437   0.03031   0.00000   0.05102   0.05064   2.36501
   D12       -1.89909   0.02805   0.00000   0.04816   0.04786  -1.85123
   D13        0.24464   0.02048   0.00000   0.03470   0.03457   0.27920
   D14        0.00000  -0.00599   0.00000  -0.01863  -0.01867  -0.01867
   D15        3.14159  -0.01249   0.00000  -0.09352  -0.09314   3.04845
   D16        1.46830  -0.01981   0.00000  -0.06563  -0.06543   1.40287
   D17        3.14159   0.00706   0.00000   0.05277   0.05243  -3.08916
   D18        0.00000   0.00056   0.00000  -0.02212  -0.02204  -0.02204
   D19       -1.67329  -0.00676   0.00000   0.00577   0.00568  -1.66761
   D20        1.27652  -0.00705   0.00000  -0.01569  -0.01616   1.26035
   D21        3.14159  -0.00392   0.00000  -0.11512  -0.11320   3.02839
   D22        1.27643  -0.01145   0.00000  -0.01955  -0.01968   1.25674
   D23       -1.86507  -0.00055   0.00000   0.05919   0.05844  -1.80664
   D24        0.00000   0.00258   0.00000  -0.04023  -0.03860  -0.03860
   D25       -1.86517  -0.00495   0.00000   0.05534   0.05492  -1.81025
   D26       -0.43973  -0.00022   0.00000   0.00379   0.00350  -0.43623
   D27        1.42535   0.00291   0.00000  -0.09563  -0.09354   1.33180
   D28       -0.43982  -0.00462   0.00000  -0.00006  -0.00002  -0.43984
   D29       -1.03870  -0.00577   0.00000  -0.00497  -0.00486  -1.04356
   D30        1.02984   0.01324   0.00000  -0.00012  -0.00050   1.02934
   D31        3.14159   0.00955   0.00000   0.00857   0.00909  -3.13251
   D32       -1.07168   0.01417   0.00000   0.01240   0.01201  -1.05967
   D33        0.99805   0.01290   0.00000   0.01303   0.01248   1.01053
   D34        2.08608  -0.01952   0.00000  -0.03326  -0.03261   2.05347
   D35       -2.12738  -0.02079   0.00000  -0.03264  -0.03214  -2.15952
   D36       -2.31437  -0.03709   0.00000  -0.08681  -0.08616  -2.40052
   D37       -0.24464  -0.03837   0.00000  -0.08619  -0.08569  -0.33032
   D38        0.00000   0.00503   0.00000   0.01057   0.01079   0.01079
   D39       -1.57080  -0.00138   0.00000  -0.02063  -0.02061  -1.59140
   D40        1.57080   0.01028   0.00000   0.01637   0.01628   1.58708
   D41        1.57080   0.00609   0.00000   0.01464   0.01483   1.58563
   D42        0.00000  -0.00033   0.00000  -0.01655  -0.01656  -0.01656
   D43        3.14159   0.01134   0.00000   0.02044   0.02033  -3.12126
   D44       -1.57080   0.00266   0.00000   0.01576   0.01622  -1.55458
   D45        3.14159  -0.00375   0.00000  -0.01544  -0.01517   3.12642
   D46        0.00000   0.00791   0.00000   0.02156   0.02172   0.02172
   D47       -1.87309  -0.00286   0.00000   0.01120   0.01057  -1.86252
   D48        0.00799  -0.01211   0.00000  -0.01880  -0.01788  -0.00990
   D49        1.26850   0.00056   0.00000   0.01008   0.00920   1.27770
   D50       -0.53870  -0.01078   0.00000  -0.00200  -0.00138  -0.54008
   D51        1.32640   0.00592   0.00000   0.00162   0.00191   1.32832
   D52       -1.81519   0.00250   0.00000   0.00274   0.00329  -1.81190
         Item               Value     Threshold  Converged?
 Maximum Force            0.061183     0.000015     NO 
 RMS     Force            0.017339     0.000010     NO 
 Maximum Displacement     0.189066     0.000060     NO 
 RMS     Displacement     0.036891     0.000040     NO 
 Predicted change in Energy=-3.976434D-02
 GradGradGradGradGradGradGradGradGradGradGradGradGradGradGradGradGradGrad

                          Input orientation:                          
 ---------------------------------------------------------------------
 Center     Atomic      Atomic             Coordinates (Angstroms)
 Number     Number       Type             X           Y           Z
 ---------------------------------------------------------------------
      1          6           0       -0.672449    1.150288    0.010873
      2          6           0        0.016310   -0.019488   -0.058451
      3          6           0        1.459798   -0.012875   -0.049457
      4          6           0        2.144309    1.154547    0.006078
      5          6           0        1.407773    1.160286    2.105529
      6          6           0        0.053109    1.169174    2.114069
      7          1           0       -1.233136    2.080957   -0.013899
      8          1           0       -1.476266    0.403445    0.051630
      9          1           0       -0.519041   -0.967478   -0.053821
     10          1           0        2.000609   -0.957548   -0.017224
     11          1           0        2.696912    2.088436   -0.067979
     12          1           0        2.952714    0.418725    0.100049
     13          1           0        1.962499    2.095816    2.105464
     14          1           0        1.948516    0.215879    2.097379
     15          1           0       -0.472897    2.122297    2.136584
     16          1           0       -0.508760    0.239539    2.133178
 ---------------------------------------------------------------------
                    Distance matrix (angstroms):
                    1          2          3          4          5
     1  C    0.000000
     2  C    1.359253   0.000000
     3  C    2.429622   1.443532   0.000000
     4  C    2.816765   2.431235   1.354442   0.000000
     5  C    2.952119   2.830344   2.454175   2.224907   0.000000
     6  C    2.224910   2.476715   2.838461   2.969337   1.354721
     7  H    1.086798   2.444375   3.411347   3.502252   3.509133
     8  H    1.097979   1.555241   2.967156   3.697944   3.620634
     9  H    2.124300   1.088719   2.197065   3.405879   3.592045
    10  H    3.404262   2.195245   1.089001   2.117107   3.056593
    11  H    3.498418   3.410141   2.438504   1.087659   2.692114
    12  H    3.699316   2.973150   1.561226   1.097170   2.637935
    13  H    3.496324   3.597873   3.056626   2.307913   1.087629
    14  H    3.477943   2.904552   2.213611   2.300646   1.088290
    15  H    2.345906   3.105599   3.615667   3.510750   2.112664
    16  H    2.315261   2.268486   2.950055   3.521444   2.126414
                    6          7          8          9         10
     6  C    0.000000
     7  H    2.648400   0.000000
     8  H    2.679362   1.696306   0.000000
     9  H    3.097158   3.131211   1.675360   0.000000
    10  H    3.585822   4.437300   3.734395   2.519936   0.000000
    11  H    3.549095   3.930427   4.502101   4.436346   3.124970
    12  H    3.609316   4.505256   4.429271   3.741433   1.677613
    13  H    2.122383   3.834580   4.348270   4.494922   3.718910
    14  H    2.121702   4.249579   3.993670   3.480924   2.418924
    15  H    1.088868   2.281283   2.882401   3.787706   4.499175
    16  H    1.086408   2.919842   2.301255   2.497991   3.514851
                   11         12         13         14         15
    11  H    0.000000
    12  H    1.697529   0.000000
    13  H    2.294182   2.795505   0.000000
    14  H    2.958943   2.244746   1.880006   0.000000
    15  H    3.861209   4.334102   2.435739   3.082079   0.000000
    16  H    4.305791   4.018397   3.090898   2.457650   1.883102
                   16
    16  H    0.000000
 Symmetry turned off by external request.
 Stoichiometry    C6H10
 Framework group  C1[X(C6H10)]
 Deg. of freedom    42
 Full point group                 C1      NOp   1
 Rotational constants (GHZ):           4.2126860           4.0838533           2.6279283
 Standard basis: 6-31G(d) (6D, 7F)
   110 basis functions,   208 primitive gaussians,   110 cartesian basis functions
    23 alpha electrons       23 beta electrons
       nuclear repulsion energy       231.9323932459 Hartrees.
 NAtoms=   16 NActive=   16 NUniq=   16 SFac= 1.00D+00 NAtFMM=   60 NAOKFM=F Big=F
 Integral buffers will be    131072 words long.
 Raffenetti 2 integral format.
 Two-electron integral symmetry is turned off.
 One-electron integrals computed using PRISM.
 NBasis=   110 RedAO= T EigKep=  1.17D-03  NBF=   110
 NBsUse=   110 1.00D-06 EigRej= -1.00D+00 NBFU=   110
 Initial guess from the checkpoint file:  "C:\Users\al6323\OneDrive - Imperial College London\Desktop\TSR20251111\TS_guess_IRC.chk"
 B after Tr=     0.001365   -0.003864   -0.020434
         Rot=    0.999998   -0.001746    0.000246   -0.000316 Ang=  -0.21 deg.
 ExpMin= 1.61D-01 ExpMax= 3.05D+03 ExpMxC= 4.57D+02 IAcc=3 IRadAn=         5 AccDes= 0.00D+00
 Harris functional with IExCor=  402 and IRadAn=       5 diagonalized for initial guess.
 HarFok:  IExCor=  402 AccDes= 0.00D+00 IRadAn=         5 IDoV= 1 UseB2=F ITyADJ=14
 ICtDFT=  3500011 ScaDFX=  1.000000  1.000000  1.000000  1.000000
 FoFCou: FMM=F IPFlag=           0 FMFlag=      100000 FMFlg1=           0
         NFxFlg=           0 DoJE=T BraDBF=F KetDBF=T FulRan=T
         wScrn=  0.000000 ICntrl=       500 IOpCl=  0 I1Cent=   200000004 NGrid=           0
         NMat0=    1 NMatS0=      1 NMatT0=    0 NMatD0=    1 NMtDS0=    0 NMtDT0=    0
 Symmetry not used in FoFCou.
 Requested convergence on RMS density matrix=1.00D-08 within 128 cycles.
 Requested convergence on MAX density matrix=1.00D-06.
 Requested convergence on             energy=1.00D-06.
 No special actions if energy rises.
 Integral accuracy reduced to 1.0D-05 until final iterations.
 Initial convergence to 1.0D-05 achieved.  Increase integral accuracy.
 SCF Done:  E(RB3LYP) =  -234.321168815     A.U. after   14 cycles
            NFock= 14  Conv=0.43D-08     -V/T= 2.0073
 Calling FoFJK, ICntrl=      2127 FMM=F ISym2X=0 I1Cent= 0 IOpClX= 0 NMat=1 NMatS=1 NMatT=0.
 -------------------------------------------------------------------
 Center     Atomic                   Forces (Hartrees/Bohr)
 Number     Number              X              Y              Z
 -------------------------------------------------------------------
      1        6          -0.067277176   -0.052654983    0.005064454
      2        6           0.081621284   -0.002756676   -0.048657469
      3        6          -0.082552786   -0.008599060   -0.052508229
      4        6           0.069863353   -0.047871558    0.006358114
      5        6           0.006075716    0.007358925    0.015598035
      6        6          -0.005619645    0.012591905    0.015749646
      7        1           0.032251409    0.008859196   -0.008469758
      8        1          -0.049760789    0.036358596    0.006359919
      9        1           0.005765097   -0.004557898    0.002221365
     10        1          -0.005925060   -0.004783279    0.002499909
     11        1          -0.032943044    0.008173378   -0.008040870
     12        1           0.048817917    0.036790467    0.006299417
     13        1           0.003131846   -0.004180532    0.011117788
     14        1           0.000992917    0.010980111    0.019142875
     15        1          -0.003630591   -0.005319056    0.010039559
     16        1          -0.000810447    0.009610465    0.017225244
 -------------------------------------------------------------------
 Cartesian Forces:  Max     0.082552786 RMS     0.030723653

 GradGradGradGradGradGradGradGradGradGradGradGradGradGradGradGradGradGrad
 Berny optimization.
 Using GEDIIS/GDIIS optimizer.
 FormGI is forming the generalized inverse of G from B-inverse, IUseBI=4.
 Internal  Forces:  Max     0.045005754 RMS     0.015265253
 Search for a local minimum.
 Step number   2 out of a maximum of  100
 All quantities printed in internal units (Hartrees-Bohrs-Radians)
 Mixed Optimization -- RFO/linear search
 Update second derivatives using D2CorX and points    1    2
 DE= -3.96D-02 DEPred=-3.98D-02 R= 9.97D-01
 TightC=F SS=  1.41D+00  RLast= 4.24D-01 DXNew= 5.0454D-01 1.2708D+00
 Trust test= 9.97D-01 RLast= 4.24D-01 DXMaxT set to 5.05D-01
 ITU=  1  0
 Use linear search instead of GDIIS.
 Linear search step of   0.606 exceeds DXMaxT=   0.505 but not scaled.
 Quartic linear search produced a step of  2.00000.
 Iteration  1 RMS(Cart)=  0.07337389 RMS(Int)=  0.00919988
 Iteration  2 RMS(Cart)=  0.00722275 RMS(Int)=  0.00541644
 Iteration  3 RMS(Cart)=  0.00009819 RMS(Int)=  0.00541546
 Iteration  4 RMS(Cart)=  0.00000059 RMS(Int)=  0.00541546
 Iteration  1 RMS(Cart)=  0.00031447 RMS(Int)=  0.00011760
 Iteration  2 RMS(Cart)=  0.00004748 RMS(Int)=  0.00012677
 Iteration  3 RMS(Cart)=  0.00001661 RMS(Int)=  0.00013432
 Iteration  4 RMS(Cart)=  0.00000901 RMS(Int)=  0.00013894
 Iteration  5 RMS(Cart)=  0.00000495 RMS(Int)=  0.00014166
 Iteration  6 RMS(Cart)=  0.00000271 RMS(Int)=  0.00014321
 Iteration  7 RMS(Cart)=  0.00000148 RMS(Int)=  0.00014407
 Iteration  8 RMS(Cart)=  0.00000081 RMS(Int)=  0.00014454
 Variable       Old X    -DE/DX   Delta X   Delta X   Delta X     New X
                                 (Linear)    (Quad)   (Total)
    R1        2.56862   0.04371   0.07432   0.00000   0.07582   2.64443
    R2        4.20447   0.03952   0.00000   0.00000   0.00000   4.20447
    R3        2.05375  -0.00886  -0.01357   0.00000  -0.01357   2.04018
    R4        2.07488   0.01193   0.03380   0.00000   0.03380   2.10868
    R5        2.72788  -0.01436  -0.10004   0.00000  -0.09751   2.63037
    R6        2.05738   0.00114  -0.00495   0.00000  -0.00495   2.05243
    R7        2.55952   0.03441   0.05613   0.00000   0.05849   2.61801
    R8        2.05791   0.00128  -0.00388   0.00000  -0.00388   2.05403
    R9        4.18312   0.03550   0.18387   0.00000   0.18734   4.37046
   R10        4.20447   0.02075  -0.00001   0.00000   0.00000   4.20446
   R11        2.05538  -0.01029  -0.01031   0.00000  -0.00861   2.04677
   R12        2.07335   0.01184   0.03074   0.00000   0.03074   2.10409
   R13        4.36132   0.00479  -0.00882   0.00000  -0.00927   4.35206
   R14        2.56005   0.02193   0.05564   0.00000   0.05317   2.61322
   R15        2.05532  -0.00254  -0.00907   0.00000  -0.01018   2.04514
   R16        2.05657  -0.00093  -0.00657   0.00000  -0.00515   2.05142
   R17        2.05766  -0.00269  -0.00439   0.00000  -0.00439   2.05328
   R18        2.05301  -0.00750  -0.01368   0.00000  -0.01368   2.03933
   R19        4.33538  -0.00072   0.24157   0.00000   0.24045   4.57582
    A1        1.46085   0.00832   0.11208   0.00000   0.11306   1.57391
    A2        1.35664   0.04501   0.12090   0.00000   0.13304   1.48968
    A3        1.75434  -0.00649   0.02551   0.00000   0.02547   1.77981
    A4        1.78178   0.01295  -0.04330   0.00000  -0.05971   1.72207
    A5        1.77791  -0.01030  -0.10170   0.00000  -0.09663   1.68129
    A6        2.09722   0.00959   0.00529   0.00000   0.00070   2.09792
    A7        2.09437   0.00224   0.00027   0.00000  -0.00410   2.09027
    A8        2.08941  -0.01258  -0.00995   0.00000  -0.01379   2.07562
    A9        2.10548   0.01756   0.02182   0.00000   0.01702   2.12250
   A10        2.08611  -0.01266  -0.01654   0.00000  -0.01908   2.06703
   A11        1.80009   0.00360   0.01144   0.00000   0.01109   1.81118
   A12        2.08920  -0.00530  -0.01006   0.00000  -0.01633   2.07288
   A13        1.32801  -0.01463  -0.08841   0.00000  -0.08471   1.24330
   A14        1.52207   0.00623  -0.04854   0.00000  -0.04772   1.47436
   A15        1.44407   0.00335   0.07852   0.00000   0.07924   1.52331
   A16        1.36722   0.04437   0.14207   0.00000   0.16545   1.53267
   A17        1.92732   0.00151   0.07697   0.00000   0.07741   2.00472
   A18        1.80311  -0.00338   0.12303   0.00000   0.12394   1.92705
   A19        1.73638   0.01129  -0.13410   0.00000  -0.14963   1.58675
   A20        1.77963  -0.01306  -0.09825   0.00000  -0.07428   1.70536
   A21        1.82725  -0.00662  -0.20235   0.00000  -0.21639   1.61087
   A22        1.91452   0.01434   0.01409   0.00000   0.01254   1.92706
   A23        1.39612  -0.00593  -0.01749   0.00000  -0.01735   1.37877
   A24        2.09945   0.00571   0.01013   0.00000   0.01235   2.11179
   A25        2.09739   0.00113   0.00603   0.00000   0.00525   2.10264
   A26        2.08634  -0.00684  -0.01616   0.00000  -0.01761   2.06874
   A27        1.89661  -0.00337  -0.02173   0.00000  -0.02323   1.87338
   A28        1.43986   0.00877   0.07000   0.00000   0.07204   1.51190
   A29        1.41082   0.00318   0.01191   0.00000   0.01242   1.42324
   A30        2.08166  -0.00443  -0.02544   0.00000  -0.02493   2.05672
   A31        2.10791   0.00703   0.02705   0.00000   0.02567   2.13358
   A32        2.09303  -0.00296  -0.00279   0.00000  -0.00537   2.08766
   A33        1.73206   0.00545  -0.00873   0.00000  -0.01387   1.71819
   A34        1.55804   0.00470   0.02338   0.00000   0.02264   1.58068
   A35        3.21519   0.00183   0.13758   0.00000   0.13853   3.35372
   A36        3.24717  -0.00003   0.20155   0.00000   0.20318   3.45035
   A37        3.12988  -0.03716  -0.05575   0.00000  -0.05359   3.07629
   A38        3.17005   0.03306   0.08924   0.00000   0.08227   3.25232
    D1       -1.24275   0.01362   0.06755   0.00000   0.07223  -1.17051
    D2        1.82754   0.00085  -0.07507   0.00000  -0.06891   1.75863
    D3       -3.05553   0.00981   0.17213   0.00000   0.16269  -2.89283
    D4        0.01476  -0.00295   0.02952   0.00000   0.02155   0.03631
    D5        1.03895  -0.02039  -0.06545   0.00000  -0.06503   0.97392
    D6        3.10590  -0.02243  -0.07101   0.00000  -0.06997   3.03593
    D7       -1.04685  -0.02873  -0.09759   0.00000  -0.09533  -1.14218
    D8       -2.09093   0.01677  -0.00970   0.00000  -0.01144  -2.10237
    D9       -0.02398   0.01473  -0.01526   0.00000  -0.01637  -0.04035
   D10        2.10645   0.00843  -0.04185   0.00000  -0.04173   2.06472
   D11        2.36501   0.02615   0.10128   0.00000   0.09813   2.46314
   D12       -1.85123   0.02411   0.09572   0.00000   0.09320  -1.75803
   D13        0.27920   0.01781   0.06913   0.00000   0.06784   0.34704
   D14       -0.01867  -0.00514  -0.03735   0.00000  -0.03739  -0.05606
   D15        3.04845  -0.01170  -0.18628   0.00000  -0.18329   2.86516
   D16        1.40287  -0.01767  -0.13085   0.00000  -0.12849   1.27439
   D17       -3.08916   0.00698   0.10486   0.00000   0.10219  -2.98697
   D18       -0.02204   0.00043  -0.04408   0.00000  -0.04371  -0.06575
   D19       -1.66761  -0.00554   0.01136   0.00000   0.01109  -1.65652
   D20        1.26035  -0.00770  -0.03233   0.00000  -0.03434   1.22602
   D21        3.02839  -0.00439  -0.22641   0.00000  -0.21378   2.81461
   D22        1.25674  -0.01207  -0.03937   0.00000  -0.03944   1.21730
   D23       -1.80664  -0.00082   0.11687   0.00000   0.11215  -1.69449
   D24       -0.03860   0.00249  -0.07721   0.00000  -0.06730  -0.10590
   D25       -1.81025  -0.00519   0.10983   0.00000   0.10704  -1.70321
   D26       -0.43623  -0.00059   0.00699   0.00000   0.00519  -0.43104
   D27        1.33180   0.00272  -0.18708   0.00000  -0.17426   1.15755
   D28       -0.43984  -0.00496  -0.00004   0.00000   0.00008  -0.43976
   D29       -1.04356  -0.00409  -0.00972   0.00000  -0.00917  -1.05274
   D30        1.02934   0.01168  -0.00101   0.00000  -0.00300   1.02633
   D31       -3.13251   0.00718   0.01817   0.00000   0.02106  -3.11145
   D32       -1.05967   0.01289   0.02402   0.00000   0.02204  -1.03763
   D33        1.01053   0.01217   0.02496   0.00000   0.02202   1.03255
   D34        2.05347  -0.02017  -0.06523   0.00000  -0.06023   1.99324
   D35       -2.15952  -0.02090  -0.06429   0.00000  -0.06025  -2.21977
   D36       -2.40052  -0.03148  -0.17231   0.00000  -0.16897  -2.56949
   D37       -0.33032  -0.03220  -0.17137   0.00000  -0.16899  -0.49931
   D38        0.01079   0.00454   0.02157   0.00000   0.02273   0.03352
   D39       -1.59140  -0.00249  -0.04121   0.00000  -0.04116  -1.63256
   D40        1.58708   0.00878   0.03257   0.00000   0.03206   1.61914
   D41        1.58563   0.00705   0.02966   0.00000   0.03093   1.61656
   D42       -0.01656   0.00002  -0.03312   0.00000  -0.03296  -0.04952
   D43       -3.12126   0.01129   0.04066   0.00000   0.04026  -3.08100
   D44       -1.55458   0.00300   0.03243   0.00000   0.03460  -1.51998
   D45        3.12642  -0.00403  -0.03035   0.00000  -0.02929   3.09712
   D46        0.02172   0.00725   0.04343   0.00000   0.04393   0.06564
   D47       -1.86252  -0.00167   0.02115   0.00000   0.01683  -1.84569
   D48       -0.00990  -0.01129  -0.03577   0.00000  -0.02974  -0.03964
   D49        1.27770   0.00235   0.01840   0.00000   0.01325   1.29095
   D50       -0.54008  -0.00777  -0.00277   0.00000   0.00051  -0.53958
   D51        1.32832   0.00552   0.00382   0.00000   0.00534   1.33366
   D52       -1.81190   0.00150   0.00657   0.00000   0.00890  -1.80300
         Item               Value     Threshold  Converged?
 Maximum Force            0.044074     0.000015     NO 
 RMS     Force            0.014606     0.000010     NO 
 Maximum Displacement     0.401113     0.000060     NO 
 RMS     Displacement     0.075532     0.000040     NO 
 Predicted change in Energy=-6.366287D-02
 GradGradGradGradGradGradGradGradGradGradGradGradGradGradGradGradGradGrad

                          Input orientation:                          
 ---------------------------------------------------------------------
 Center     Atomic      Atomic             Coordinates (Angstroms)
 Number     Number       Type             X           Y           Z
 ---------------------------------------------------------------------
      1          6           0       -0.672309    1.125797    0.031500
      2          6           0        0.049926   -0.054212   -0.178744
      3          6           0        1.441486   -0.037837   -0.150919
      4          6           0        2.150592    1.140399    0.017133
      5          6           0        1.413136    1.160653    2.116170
      6          6           0        0.030790    1.188410    2.141466
      7          1           0       -1.233233    2.045075   -0.045087
      8          1           0       -1.553530    0.454945    0.167733
      9          1           0       -0.464503   -1.010675   -0.166351
     10          1           0        1.968348   -0.983690   -0.054834
     11          1           0        2.686904    2.055128   -0.203669
     12          1           0        3.027319    0.520748    0.312309
     13          1           0        1.989061    2.076922    2.114913
     14          1           0        1.944419    0.214279    2.092359
     15          1           0       -0.456179    2.157471    2.207542
     16          1           0       -0.562229    0.288588    2.198478
 ---------------------------------------------------------------------
                    Distance matrix (angstroms):
                    1          2          3          4          5
     1  C    0.000000
     2  C    1.399374   0.000000
     3  C    2.419804   1.391934   0.000000
     4  C    2.822976   2.424512   1.385393   0.000000
     5  C    2.948923   2.932723   2.564541   2.224906   0.000000
     6  C    2.224911   2.632080   2.957832   3.001442   1.382856
     7  H    1.079617   2.464014   3.391732   3.503225   3.529377
     8  H    1.115864   1.717660   3.051965   3.770019   3.618775
     9  H    2.155654   1.086100   2.139964   3.391093   3.667437
    10  H    3.380897   2.135328   1.086947   2.133108   3.101568
    11  H    3.493318   3.376919   2.436052   1.083103   2.793604
    12  H    3.759280   3.071902   1.743979   1.113439   2.503793
    13  H    3.511146   3.682776   3.147386   2.303008   1.082239
    14  H    3.453299   2.969697   2.312747   2.281835   1.085566
    15  H    2.417897   3.292726   3.739365   3.553531   2.120456
    16  H    2.325690   2.478595   3.105011   3.583748   2.160865
                    6          7          8          9         10
     6  C    0.000000
     7  H    2.666954   0.000000
     8  H    2.635083   1.635970   0.000000
     9  H    3.226036   3.153294   1.856241   0.000000
    10  H    3.646352   4.407225   3.810883   2.435555   0.000000
    11  H    3.647711   3.923356   4.547505   4.396806   3.126162
    12  H    3.573622   4.539120   4.583602   3.842811   1.876046
    13  H    2.150578   3.879406   4.355717   4.556029   3.751744
    14  H    2.147864   4.244757   3.999719   3.522100   2.458891
    15  H    1.086547   2.385537   2.874647   3.958862   4.567666
    16  H    1.079167   2.927299   2.265894   2.700010   3.619383
                   11         12         13         14         15
    11  H    0.000000
    12  H    1.654218   0.000000
    13  H    2.421421   2.597891   0.000000
    14  H    3.035087   2.105985   1.863315   0.000000
    15  H    3.962749   4.290166   2.448319   3.090653   0.000000
    16  H    4.409971   4.061575   3.116762   2.509994   1.871911
                   16
    16  H    0.000000
 Symmetry turned off by external request.
 Stoichiometry    C6H10
 Framework group  C1[X(C6H10)]
 Deg. of freedom    42
 Full point group                 C1      NOp   1
 Rotational constants (GHZ):           4.1179890           3.9828919           2.5219951
 Standard basis: 6-31G(d) (6D, 7F)
   110 basis functions,   208 primitive gaussians,   110 cartesian basis functions
    23 alpha electrons       23 beta electrons
       nuclear repulsion energy       228.9844546195 Hartrees.
 NAtoms=   16 NActive=   16 NUniq=   16 SFac= 1.00D+00 NAtFMM=   60 NAOKFM=F Big=F
 Integral buffers will be    131072 words long.
 Raffenetti 2 integral format.
 Two-electron integral symmetry is turned off.
 One-electron integrals computed using PRISM.
 NBasis=   110 RedAO= T EigKep=  1.62D-03  NBF=   110
 NBsUse=   110 1.00D-06 EigRej= -1.00D+00 NBFU=   110
 Initial guess from the checkpoint file:  "C:\Users\al6323\OneDrive - Imperial College London\Desktop\TSR20251111\TS_guess_IRC.chk"
 B after Tr=     0.004160   -0.008495   -0.042551
         Rot=    0.999994   -0.003396    0.000535   -0.000591 Ang=  -0.40 deg.
 ExpMin= 1.61D-01 ExpMax= 3.05D+03 ExpMxC= 4.57D+02 IAcc=3 IRadAn=         5 AccDes= 0.00D+00
 Harris functional with IExCor=  402 and IRadAn=       5 diagonalized for initial guess.
 HarFok:  IExCor=  402 AccDes= 0.00D+00 IRadAn=         5 IDoV= 1 UseB2=F ITyADJ=14
 ICtDFT=  3500011 ScaDFX=  1.000000  1.000000  1.000000  1.000000
 FoFCou: FMM=F IPFlag=           0 FMFlag=      100000 FMFlg1=           0
         NFxFlg=           0 DoJE=T BraDBF=F KetDBF=T FulRan=T
         wScrn=  0.000000 ICntrl=       500 IOpCl=  0 I1Cent=   200000004 NGrid=           0
         NMat0=    1 NMatS0=      1 NMatT0=    0 NMatD0=    1 NMtDS0=    0 NMtDT0=    0
 Symmetry not used in FoFCou.
 Requested convergence on RMS density matrix=1.00D-08 within 128 cycles.
 Requested convergence on MAX density matrix=1.00D-06.
 Requested convergence on             energy=1.00D-06.
 No special actions if energy rises.
 Integral accuracy reduced to 1.0D-05 until final iterations.
 Initial convergence to 1.0D-05 achieved.  Increase integral accuracy.
 SCF Done:  E(RB3LYP) =  -234.382233824     A.U. after   14 cycles
            NFock= 14  Conv=0.99D-08     -V/T= 2.0088
 Calling FoFJK, ICntrl=      2127 FMM=F ISym2X=0 I1Cent= 0 IOpClX= 0 NMat=1 NMatS=1 NMatT=0.
 -------------------------------------------------------------------
 Center     Atomic                   Forces (Hartrees/Bohr)
 Number     Number              X              Y              Z
 -------------------------------------------------------------------
      1        6          -0.064594227   -0.077028920    0.023986757
      2        6           0.039580151    0.021502052   -0.037424820
      3        6          -0.039034605    0.007460445   -0.045650115
      4        6           0.068546890   -0.062655156    0.031005828
      5        6          -0.001999307    0.002791740   -0.009247241
      6        6           0.003527949    0.017149491   -0.010443476
      7        1           0.033279202    0.018873094   -0.011351420
      8        1          -0.022539322    0.026304386    0.006147986
      9        1          -0.000341024   -0.000591414    0.001985983
     10        1          -0.000400299   -0.001634176    0.002190396
     11        1          -0.034457982    0.015060481   -0.010708180
     12        1           0.020229563    0.026510233    0.001642414
     13        1           0.002915755    0.000228627    0.013964796
     14        1          -0.000017165    0.007117706    0.018952052
     15        1          -0.004336860   -0.003677592    0.009927582
     16        1          -0.000358721    0.002589002    0.015021458
 -------------------------------------------------------------------
 Cartesian Forces:  Max     0.077028920 RMS     0.026745469

 GradGradGradGradGradGradGradGradGradGradGradGradGradGradGradGradGradGrad
 Berny optimization.
 Using GEDIIS/GDIIS optimizer.
 FormGI is forming the generalized inverse of G from B-inverse, IUseBI=4.
 Internal  Forces:  Max     0.033072630 RMS     0.010196687
 Search for a local minimum.
 Step number   3 out of a maximum of  100
 All quantities printed in internal units (Hartrees-Bohrs-Radians)
 Mixed Optimization -- RFO/linear search
 Update second derivatives using D2CorX and points    2    3
 ITU=  0  1  0
 Use linear search instead of GDIIS.
 Linear search step of   0.773 exceeds DXMaxT=   0.505 but not scaled.
 Quartic linear search produced a step of  1.24697.
 Iteration  1 RMS(Cart)=  0.08863859 RMS(Int)=  0.01889487
 Iteration  2 RMS(Cart)=  0.01543383 RMS(Int)=  0.00947604
 Iteration  3 RMS(Cart)=  0.00044389 RMS(Int)=  0.00946483
 Iteration  4 RMS(Cart)=  0.00000448 RMS(Int)=  0.00946483
 Iteration  5 RMS(Cart)=  0.00000007 RMS(Int)=  0.00946483
 Iteration  1 RMS(Cart)=  0.00050320 RMS(Int)=  0.00015825
 Iteration  2 RMS(Cart)=  0.00007540 RMS(Int)=  0.00016898
 Iteration  3 RMS(Cart)=  0.00002079 RMS(Int)=  0.00017602
 Iteration  4 RMS(Cart)=  0.00000993 RMS(Int)=  0.00017997
 Iteration  5 RMS(Cart)=  0.00000529 RMS(Int)=  0.00018226
 Iteration  6 RMS(Cart)=  0.00000287 RMS(Int)=  0.00018356
 Iteration  7 RMS(Cart)=  0.00000156 RMS(Int)=  0.00018428
 Iteration  8 RMS(Cart)=  0.00000085 RMS(Int)=  0.00018468
 Variable       Old X    -DE/DX   Delta X   Delta X   Delta X     New X
                                 (Linear)    (Quad)   (Total)
    R1        2.64443   0.01092   0.09454   0.00000   0.09626   2.74069
    R2        4.20447   0.01615   0.00000   0.00000   0.00000   4.20447
    R3        2.04018  -0.00042  -0.01692   0.00000  -0.01692   2.02326
    R4        2.10868   0.00274   0.04214   0.00000   0.04214   2.15082
    R5        2.63037   0.00478  -0.12159   0.00000  -0.11700   2.51338
    R6        2.05243   0.00070  -0.00617   0.00000  -0.00617   2.04626
    R7        2.61801   0.00933   0.07293   0.00000   0.07830   2.69631
    R8        2.05403   0.00142  -0.00484   0.00000  -0.00484   2.04919
    R9        4.37046   0.02400   0.23361   0.00000   0.23673   4.60719
   R10        4.20446   0.00617   0.00000   0.00000   0.00002   4.20448
   R11        2.04677  -0.00239  -0.01074   0.00000  -0.00564   2.04113
   R12        2.10409   0.00161   0.03834   0.00000   0.03834   2.14243
   R13        4.35206   0.00266  -0.01156   0.00000  -0.01041   4.34165
   R14        2.61322   0.01115   0.06630   0.00000   0.06195   2.67517
   R15        2.04514  -0.00007  -0.01270   0.00000  -0.01528   2.02985
   R16        2.05142  -0.00128  -0.00642   0.00000  -0.00571   2.04571
   R17        2.05328  -0.00073  -0.00547   0.00000  -0.00547   2.04781
   R18        2.03933  -0.00117  -0.01706   0.00000  -0.01706   2.02227
   R19        4.57582  -0.00050   0.29983   0.00000   0.29340   4.86922
    A1        1.57391   0.00755   0.14098   0.00000   0.13977   1.71368
    A2        1.48968   0.03056   0.16590   0.00000   0.18740   1.67708
    A3        1.77981  -0.00396   0.03176   0.00000   0.03265   1.81246
    A4        1.72207   0.00643  -0.07445   0.00000  -0.10225   1.61983
    A5        1.68129   0.00027  -0.12049   0.00000  -0.10937   1.57192
    A6        2.09792   0.00749   0.00088   0.00000  -0.00644   2.09148
    A7        2.09027  -0.00446  -0.00511   0.00000  -0.01365   2.07661
    A8        2.07562  -0.00482  -0.01719   0.00000  -0.02394   2.05168
    A9        2.12250   0.00996   0.02122   0.00000   0.01402   2.13652
   A10        2.06703  -0.00531  -0.02379   0.00000  -0.02816   2.03887
   A11        1.81118   0.00084   0.01383   0.00000   0.01351   1.82469
   A12        2.07288  -0.00573  -0.02036   0.00000  -0.03179   2.04109
   A13        1.24330  -0.00938  -0.10563   0.00000  -0.09830   1.14499
   A14        1.47436   0.00346  -0.05950   0.00000  -0.05957   1.41479
   A15        1.52331   0.00487   0.09881   0.00000   0.09766   1.62097
   A16        1.53267   0.02899   0.20631   0.00000   0.24147   1.77414
   A17        2.00472   0.00434   0.09653   0.00000   0.09467   2.09940
   A18        1.92705  -0.00247   0.15455   0.00000   0.15511   2.08216
   A19        1.58675   0.00706  -0.18658   0.00000  -0.20444   1.38231
   A20        1.70536  -0.00142  -0.09262   0.00000  -0.04041   1.66495
   A21        1.61087  -0.00371  -0.26983   0.00000  -0.28763   1.32323
   A22        1.92706   0.00818   0.01564   0.00000   0.01234   1.93939
   A23        1.37877  -0.00326  -0.02163   0.00000  -0.02050   1.35827
   A24        2.11179   0.00265   0.01540   0.00000   0.01997   2.13176
   A25        2.10264   0.00155   0.00655   0.00000   0.00435   2.10700
   A26        2.06874  -0.00419  -0.02196   0.00000  -0.02434   2.04439
   A27        1.87338   0.00093  -0.02897   0.00000  -0.03025   1.84313
   A28        1.51190   0.00676   0.08983   0.00000   0.09209   1.60400
   A29        1.42324   0.00150   0.01549   0.00000   0.01643   1.43967
   A30        2.05672  -0.00326  -0.03109   0.00000  -0.02910   2.02763
   A31        2.13358   0.00444   0.03201   0.00000   0.02881   2.16239
   A32        2.08766  -0.00223  -0.00670   0.00000  -0.01166   2.07600
   A33        1.71819   0.00050  -0.01729   0.00000  -0.02499   1.69320
   A34        1.58068  -0.00016   0.02823   0.00000   0.02586   1.60654
   A35        3.35372   0.00359   0.17274   0.00000   0.17242   3.52614
   A36        3.45035   0.00240   0.25336   0.00000   0.25277   3.70313
   A37        3.07629  -0.03307  -0.06683   0.00000  -0.06256   3.01373
   A38        3.25232   0.02975   0.10258   0.00000   0.08953   3.34185
    D1       -1.17051   0.01388   0.09007   0.00000   0.09736  -1.07315
    D2        1.75863   0.00356  -0.08593   0.00000  -0.07413   1.68450
    D3       -2.89283   0.00832   0.20287   0.00000   0.18370  -2.70914
    D4        0.03631  -0.00199   0.02687   0.00000   0.01220   0.04851
    D5        0.97392  -0.01556  -0.08109   0.00000  -0.08082   0.89310
    D6        3.03593  -0.01672  -0.08724   0.00000  -0.08556   2.95037
    D7       -1.14218  -0.02063  -0.11887   0.00000  -0.11454  -1.25672
    D8       -2.10237   0.01752  -0.01426   0.00000  -0.01826  -2.12062
    D9       -0.04035   0.01635  -0.02041   0.00000  -0.02300  -0.06335
   D10        2.06472   0.01244  -0.05204   0.00000  -0.05198   2.01274
   D11        2.46314   0.01645   0.12237   0.00000   0.11537   2.57851
   D12       -1.75803   0.01529   0.11622   0.00000   0.11063  -1.64740
   D13        0.34704   0.01137   0.08459   0.00000   0.08165   0.42870
   D14       -0.05606  -0.00344  -0.04662   0.00000  -0.04634  -0.10241
   D15        2.86516  -0.00987  -0.22855   0.00000  -0.22236   2.64280
   D16        1.27439  -0.01301  -0.16022   0.00000  -0.15368   1.12070
   D17       -2.98697   0.00676   0.12742   0.00000   0.12154  -2.86543
   D18       -0.06575   0.00033  -0.05451   0.00000  -0.05448  -0.12023
   D19       -1.65652  -0.00280   0.01383   0.00000   0.01420  -1.64232
   D20        1.22602  -0.00854  -0.04282   0.00000  -0.04436   1.18165
   D21        2.81461  -0.00305  -0.26658   0.00000  -0.24437   2.57024
   D22        1.21730  -0.01225  -0.04918   0.00000  -0.04772   1.16958
   D23       -1.69449  -0.00214   0.13984   0.00000   0.13141  -1.56308
   D24       -0.10590   0.00334  -0.08392   0.00000  -0.06859  -0.17450
   D25       -1.70321  -0.00586   0.13347   0.00000   0.12806  -1.57515
   D26       -0.43104  -0.00116   0.00647   0.00000   0.00318  -0.42787
   D27        1.15755   0.00433  -0.21729   0.00000  -0.19683   0.96072
   D28       -0.43976  -0.00488   0.00010   0.00000  -0.00018  -0.43994
   D29       -1.05274  -0.00148  -0.01144   0.00000  -0.01030  -1.06304
   D30        1.02633   0.00801  -0.00374   0.00000  -0.00604   1.02029
   D31       -3.11145   0.00318   0.02626   0.00000   0.03199  -3.07946
   D32       -1.03763   0.00972   0.02748   0.00000   0.02615  -1.01148
   D33        1.03255   0.01020   0.02746   0.00000   0.02391   1.05646
   D34        1.99324  -0.02003  -0.07510   0.00000  -0.06338   1.92985
   D35       -2.21977  -0.01955  -0.07513   0.00000  -0.06562  -2.28539
   D36       -2.56949  -0.01905  -0.21070   0.00000  -0.21033  -2.77983
   D37       -0.49931  -0.01858  -0.21073   0.00000  -0.21257  -0.71189
   D38        0.03352   0.00365   0.02835   0.00000   0.02930   0.06281
   D39       -1.63256  -0.00372  -0.05133   0.00000  -0.05200  -1.68456
   D40        1.61914   0.00751   0.03998   0.00000   0.03856   1.65770
   D41        1.61656   0.00785   0.03857   0.00000   0.04107   1.65763
   D42       -0.04952   0.00049  -0.04110   0.00000  -0.04023  -0.08975
   D43       -3.08100   0.01171   0.05020   0.00000   0.05033  -3.03067
   D44       -1.51998   0.00228   0.04315   0.00000   0.04549  -1.47449
   D45        3.09712  -0.00508  -0.03653   0.00000  -0.03580   3.06132
   D46        0.06564   0.00614   0.05478   0.00000   0.05476   0.12040
[...]
 ! A14   A(10,3,14)            100.6926         -DE/DX =    0.0001              !
 ! A15   A(3,4,5)              102.8586         -DE/DX =    0.0003              !
 ! A16   A(3,4,12)             119.5879         -DE/DX =   -0.0001              !
 ! A17   A(3,4,13)             128.0569         -DE/DX =    0.0005              !
 ! A18   A(5,4,11)              87.0011         -DE/DX =    0.0005              !
 ! A19   A(5,4,12)             104.7362         -DE/DX =    0.0001              !
 ! A20   A(11,4,12)            114.0813         -DE/DX =   -0.0002              !
 ! A21   A(12,4,13)             92.1427         -DE/DX =   -0.0001              !
 ! A22   A(4,5,6)              109.1849         -DE/DX =   -0.0005              !
 ! A23   A(4,5,14)              93.2254         -DE/DX =    0.0004              !
 ! A24   A(6,5,13)             119.2925         -DE/DX =   -0.0003              !
 ! A25   A(6,5,14)             119.4304         -DE/DX =    0.0002              !
 ! A26   A(13,5,14)            114.7336         -DE/DX =   -0.0002              !
 ! A27   A(1,6,5)              109.1833         -DE/DX =    0.0008              !
 ! A28   A(1,6,15)              92.6075         -DE/DX =   -0.0003              !
 ! A29   A(1,6,16)              93.2277         -DE/DX =   -0.0003              !
 ! A30   A(5,6,15)             119.292          -DE/DX =   -0.0002              !
 ! A31   A(5,6,16)             119.4292         -DE/DX =    0.0                 !
 ! A32   A(15,6,16)            114.7347         -DE/DX =    0.0001              !
 ! A33   A(5,13,11)             77.7126         -DE/DX =   -0.0009              !
 ! A34   A(3,14,5)              73.7183         -DE/DX =   -0.0005              !
 ! A35   L(2,1,7,6,-1)         189.8624         -DE/DX =    0.0002              !
 ! A36   L(3,4,11,5,-1)        189.8598         -DE/DX =    0.0008              !
 ! A37   L(2,1,7,6,-2)         120.1638         -DE/DX =    0.0001              !
 ! A38   L(3,4,11,5,-2)        239.8368         -DE/DX =    0.0                 !
 ! D1    D(6,1,2,3)            -57.5173         -DE/DX =    0.0001              !
 ! D2    D(6,1,2,9)            108.7567         -DE/DX =   -0.0001              !
 ! D3    D(8,1,2,3)           -172.9565         -DE/DX =    0.0001              !
 ! D4    D(8,1,2,9)             -6.6824         -DE/DX =   -0.0001              !
 ! D5    D(2,1,6,5)             49.4628         -DE/DX =    0.0002              !
 ! D6    D(2,1,6,15)           171.7665         -DE/DX =    0.0001              !
 ! D7    D(2,1,6,16)           -73.2672         -DE/DX =    0.0001              !
 ! D8    D(7,1,6,5)            -70.701          -DE/DX =    0.0001              !
 ! D9    D(7,1,6,15)            51.6026         -DE/DX =    0.0                 !
 ! D10   D(7,1,6,16)           166.569          -DE/DX =    0.0                 !
 ! D11   D(8,1,6,5)            175.1739         -DE/DX =    0.0001              !
 ! D12   D(8,1,6,15)           -62.5224         -DE/DX =    0.0                 !
 ! D13   D(8,1,6,16)            52.4439         -DE/DX =    0.0                 !
 ! D14   D(1,2,3,4)              0.0016         -DE/DX =    0.0                 !
 ! D15   D(1,2,3,10)           166.3341         -DE/DX =   -0.0002              !
 ! D16   D(1,2,3,14)            58.1734         -DE/DX =   -0.0004              !
 ! D17   D(9,2,3,4)           -166.3305         -DE/DX =    0.0002              !
 ! D18   D(9,2,3,10)             0.002          -DE/DX =   -0.0001              !
 ! D19   D(9,2,3,14)          -108.1587         -DE/DX =   -0.0002              !
 ! D20   D(2,3,4,5)             57.5134         -DE/DX =   -0.0004              !
 ! D21   D(2,3,4,12)           172.9587         -DE/DX =   -0.0002              !
 ! D22   D(2,3,4,13)            53.0164         -DE/DX =   -0.0005              !
 ! D23   D(10,3,4,5)          -108.7611         -DE/DX =   -0.0001              !
 ! D24   D(10,3,4,12)            6.6842         -DE/DX =    0.0001              !
 ! D25   D(10,3,4,13)         -113.2581         -DE/DX =   -0.0002              !
 ! D26   D(14,3,4,5)           -24.2907         -DE/DX =   -0.0003              !
 ! D27   D(14,3,4,12)           91.1546         -DE/DX =   -0.0001              !
 ! D28   D(14,3,4,13)          -28.7877         -DE/DX =   -0.0004              !
 ! D29   D(2,3,14,5)           -62.1461         -DE/DX =    0.0001              !
 ! D30   D(4,3,14,5)            58.9856         -DE/DX =   -0.0004              !
 ! D31   D(10,3,14,5)          176.2748         -DE/DX =   -0.0001              !
 ! D32   D(3,4,5,6)            -49.455          -DE/DX =   -0.0001              !
 ! D33   D(3,4,5,14)            73.2757         -DE/DX =    0.0001              !
 ! D34   D(11,4,5,6)            70.7082         -DE/DX =   -0.0001              !
 ! D35   D(11,4,5,14)         -166.561          -DE/DX =    0.0001              !
 ! D36   D(12,4,5,6)          -175.168          -DE/DX =   -0.0001              !
 ! D37   D(12,4,5,14)          -52.4372         -DE/DX =    0.0001              !
 ! D38   D(4,5,6,1)             -0.0038         -DE/DX =   -0.0001              !
 ! D39   D(4,5,6,15)          -104.5052         -DE/DX =   -0.0002              !
 ! D40   D(4,5,6,16)           105.3463         -DE/DX =    0.0                 !
 ! D41   D(13,5,6,1)           104.4982         -DE/DX =    0.0004              !
 ! D42   D(13,5,6,15)           -0.0032         -DE/DX =    0.0004              !
 ! D43   D(13,5,6,16)         -150.1517         -DE/DX =    0.0006              !
 ! D44   D(14,5,6,1)          -105.3527         -DE/DX =   -0.0003              !
 ! D45   D(14,5,6,15)          150.1459         -DE/DX =   -0.0004              !
 ! D46   D(14,5,6,16)           -0.0026         -DE/DX =   -0.0002              !
 ! D47   D(6,5,13,11)          -92.6155         -DE/DX =    0.0003              !
 ! D48   D(11,5,13,4)          -21.1335         -DE/DX =   -0.0001              !
 ! D49   D(14,5,13,11)         115.8936         -DE/DX =    0.0009              !
 ! D50   D(4,5,14,3)           -27.0057         -DE/DX =   -0.0002              !
 ! D51   D(6,5,14,3)            87.1802         -DE/DX =   -0.0005              !
 ! D52   D(13,5,14,3)         -121.3711         -DE/DX =   -0.0013              !
 --------------------------------------------------------------------------------
 GradGradGradGradGradGradGradGradGradGradGradGradGradGradGradGradGradGrad

                          Input orientation:                          
 ---------------------------------------------------------------------
 Center     Atomic      Atomic             Coordinates (Angstroms)
 Number     Number       Type             X           Y           Z
 ---------------------------------------------------------------------
      1          6           0       -0.687723    0.928986    0.068728
      2          6           0        0.047188   -0.178686   -0.349594
      3          6           0        1.444485   -0.181061   -0.334186
      4          6           0        2.173778    0.924098    0.100308
      5          6           0        1.420276    1.231587    2.171034
      6          6           0        0.020914    1.233912    2.155611
      7          1           0       -0.326918    1.930704   -0.139716
      8          1           0       -1.769551    0.855357    0.152000
      9          1           0       -0.468258   -1.129250   -0.478991
     10          1           0        1.959413   -1.133378   -0.452256
     11          1           0        1.821087    1.927040   -0.115975
     12          1           0        3.253253    0.846770    0.207364
     13          1           0        1.952347    2.172985    2.277958
     14          1           0        1.947573    0.365898    2.557026
     15          1           0       -0.510246    2.177073    2.250869
     16          1           0       -0.517615    0.369965    2.529822
 ---------------------------------------------------------------------
                    Distance matrix (angstroms):
                    1          2          3          4          5
     1  C    0.000000
     2  C    1.393565   0.000000
     3  C    2.437387   1.397384   0.000000
     4  C    2.861679   2.437402   1.393567   0.000000
     5  C    2.992476   3.198094   2.876159   2.224909   0.000000
     6  C    2.224910   2.876139   3.198092   2.992504   1.399449
     7  H    1.084928   2.152563   2.763194   2.706353   2.980104
     8  H    1.087524   2.149740   3.411828   3.944267   3.793816
     9  H    2.141144   1.089037   2.139770   3.395906   4.020291
    10  H    3.395895   2.139763   1.089036   2.141142   3.572867
    11  H    2.706354   2.763218   2.152565   1.084925   2.423781
    12  H    3.944270   3.411835   2.149734   1.087523   2.713648
    13  H    3.660355   4.007994   3.552852   2.520101   1.086630
    14  H    3.667899   3.515178   2.985192   2.529471   1.084643
    15  H    2.520111   3.552850   4.008028   3.660443   2.151101
    16  H    2.529511   2.985140   3.515112   3.667860   2.150940
                    6          7          8          9         10
     6  C    0.000000
     7  H    2.423847   0.000000
     8  H    2.713581   1.822816   0.000000
     9  H    3.572807   3.081948   2.455642   0.000000
    10  H    4.020300   3.835830   4.269118   2.427822   0.000000
    11  H    2.980126   2.148139   3.756726   3.835856   3.081944
    12  H    3.793884   3.756728   5.023116   4.269120   2.455628
    13  H    2.151108   3.331501   4.484235   4.936077   4.287908
    14  H    2.150953   3.859320   4.454293   4.158017   3.362105
    15  H    1.086627   2.410230   2.781732   4.287852   4.936111
    16  H    1.084643   3.098177   2.730748   3.361999   4.157944
                   11         12         13         14         15
    11  H    0.000000
    12  H    1.822809   0.000000
    13  H    2.410111   2.781827   0.000000
    14  H    3.098081   2.730742   1.828515   0.000000
    15  H    3.331604   4.484367   2.462746   3.068381   0.000000
    16  H    3.859307   4.454279   3.068392   2.465342   1.828526
                   16
    16  H    0.000000
 Symmetry turned off by external request.
 Stoichiometry    C6H10
 Framework group  C1[X(C6H10)]
 Deg. of freedom    42
 Full point group                 C1      NOp   1
 Rotational constants (GHZ):           4.3610738           3.5107981           2.2813304

 **********************************************************************

            Population analysis using the SCF Density.

 **********************************************************************

 Alpha  occ. eigenvalues --  -10.18654 -10.18653 -10.18335 -10.18282 -10.17475
 Alpha  occ. eigenvalues --  -10.17421  -0.80010  -0.73822  -0.70894  -0.61744
 Alpha  occ. eigenvalues --   -0.57629  -0.51357  -0.48415  -0.45778  -0.41911
 Alpha  occ. eigenvalues --   -0.39971  -0.39780  -0.36101  -0.35121  -0.33651
 Alpha  occ. eigenvalues --   -0.33596  -0.22279  -0.21748
 Alpha virt. eigenvalues --   -0.00481   0.01731   0.09655   0.11089   0.12769
 Alpha virt. eigenvalues --    0.14306   0.14805   0.15132   0.17382   0.20450
 Alpha virt. eigenvalues --    0.20481   0.24040   0.25009   0.28901   0.31909
 Alpha virt. eigenvalues --    0.36645   0.42623   0.46980   0.50334   0.52295
 Alpha virt. eigenvalues --    0.55618   0.57757   0.58493   0.61580   0.62616
 Alpha virt. eigenvalues --    0.64166   0.65886   0.67695   0.68077   0.73363
 Alpha virt. eigenvalues --    0.74741   0.81805   0.84753   0.86224   0.86381
 Alpha virt. eigenvalues --    0.86685   0.88339   0.89362   0.93816   0.95288
 Alpha virt. eigenvalues --    0.96146   0.98762   1.00129   1.05591   1.06915
 Alpha virt. eigenvalues --    1.12463   1.15451   1.23283   1.29592   1.38875
 Alpha virt. eigenvalues --    1.39788   1.49342   1.52998   1.61128   1.61565
 Alpha virt. eigenvalues --    1.74776   1.78876   1.81140   1.92797   1.93143
 Alpha virt. eigenvalues --    1.97890   1.98051   2.01395   2.04557   2.05262
 Alpha virt. eigenvalues --    2.08355   2.14206   2.18502   2.19305   2.24422
 Alpha virt. eigenvalues --    2.27103   2.28120   2.42373   2.51795   2.57869
 Alpha virt. eigenvalues --    2.59723   2.61120   2.65358   2.69054   2.86669
 Alpha virt. eigenvalues --    3.04206   4.12011   4.22869   4.28251   4.28742
 Alpha virt. eigenvalues --    4.43698   4.54302
          Condensed to atoms (all electrons):
               1          2          3          4          5          6
     1  C    5.097130   0.545317  -0.043852  -0.031241  -0.015380   0.116299
     2  C    0.545317   4.795073   0.564827  -0.043851  -0.024154  -0.014602
     3  C   -0.043852   0.564827   4.795071   0.545317  -0.014601  -0.024154
     4  C   -0.031241  -0.043851   0.545317   5.097140   0.116299  -0.015379
     5  C   -0.015380  -0.024154  -0.014601   0.116299   5.032206   0.544216
     6  C    0.116299  -0.014602  -0.024154  -0.015379   0.544216   5.032205
     7  H    0.370624  -0.029863  -0.013087   0.005654  -0.006547  -0.015524
     8  H    0.362060  -0.027461   0.005567   0.000428   0.001041  -0.006006
     9  H   -0.059645   0.369926  -0.045241   0.006648  -0.000111   0.000826
    10  H    0.006648  -0.045241   0.369925  -0.059645   0.000826  -0.000111
    11  H    0.005654  -0.013086  -0.029864   0.370624  -0.015526  -0.006547
    12  H    0.000428   0.005567  -0.027460   0.362060  -0.006005   0.001041
    13  H    0.001005   0.000587   0.000387  -0.009983   0.375662  -0.037883
    14  H    0.000779   0.000617  -0.002763  -0.008977   0.381945  -0.034567
    15  H   -0.009982   0.000386   0.000587   0.001005  -0.037882   0.375662
    16  H   -0.008976  -0.002763   0.000617   0.000778  -0.034567   0.381944
               7          8          9         10         11         12
     1  C    0.370624   0.362060  -0.059645   0.006648   0.005654   0.000428
     2  C   -0.029863  -0.027461   0.369926  -0.045241  -0.013086   0.005567
     3  C   -0.013087   0.005567  -0.045241   0.369925  -0.029864  -0.027460
     4  C    0.005654   0.000428   0.006648  -0.059645   0.370624   0.362060
     5  C   -0.006547   0.001041  -0.000111   0.000826  -0.015526  -0.006005
     6  C   -0.015524  -0.006006   0.000826  -0.000111  -0.006547   0.001041
     7  H    0.565886  -0.042700   0.005323  -0.000021   0.005329  -0.000086
     8  H   -0.042700   0.574942  -0.007152  -0.000156  -0.000086  -0.000009
     9  H    0.005323  -0.007152   0.617093  -0.008244  -0.000021  -0.000156
    10  H   -0.000021  -0.000156  -0.008244   0.617095   0.005323  -0.007152
    11  H    0.005329  -0.000086  -0.000021   0.005323   0.565886  -0.042700
    12  H   -0.000086  -0.000009  -0.000156  -0.007152  -0.042700   0.574942
    13  H    0.000472  -0.000030   0.000006  -0.000048  -0.002703   0.000435
    14  H    0.000001  -0.000028  -0.000002   0.000384   0.001076  -0.000799
    15  H   -0.002703   0.000435  -0.000048   0.000006   0.000471  -0.000030
    16  H    0.001076  -0.000799   0.000384  -0.000002   0.000001  -0.000028
              13         14         15         16
     1  C    0.001005   0.000779  -0.009982  -0.008976
     2  C    0.000587   0.000617   0.000386  -0.002763
     3  C    0.000387  -0.002763   0.000587   0.000617
     4  C   -0.009983  -0.008977   0.001005   0.000778
     5  C    0.375662   0.381945  -0.037882  -0.034567
     6  C   -0.037883  -0.034567   0.375662   0.381944
     7  H    0.000472   0.000001  -0.002703   0.001076
     8  H   -0.000030  -0.000028   0.000435  -0.000799
     9  H    0.000006  -0.000002  -0.000048   0.000384
    10  H   -0.000048   0.000384   0.000006  -0.000002
    11  H   -0.002703   0.001076   0.000471   0.000001
    12  H    0.000435  -0.000799  -0.000030  -0.000028
    13  H    0.571147  -0.041814  -0.008117   0.004769
    14  H   -0.041814   0.554418   0.004768  -0.007966
    15  H   -0.008117   0.004768   0.571141  -0.041813
    16  H    0.004769  -0.007966  -0.041813   0.554421
 Mulliken charges:
               1
     1  C   -0.336867
     2  C   -0.081279
     3  C   -0.081277
     4  C   -0.336877
     5  C   -0.297421
     6  C   -0.297421
     7  H    0.156167
     8  H    0.139953
     9  H    0.120414
    10  H    0.120413
    11  H    0.156168
    12  H    0.139952
    13  H    0.146110
    14  H    0.152927
    15  H    0.146114
    16  H    0.152924
 Sum of Mulliken charges =   0.00000
 Mulliken charges with hydrogens summed into heavy atoms:
               1
     1  C   -0.040748
     2  C    0.039135
     3  C    0.039136
     4  C   -0.040756
     5  C    0.001617
     6  C    0.001616
 Electronic spatial extent (au):  <R**2>=            856.9236
 Charge=              0.0000 electrons
 Dipole moment (field-independent basis, Debye):
    X=             -0.0040    Y=              0.2156    Z=              0.3977  Tot=              0.4524
 Quadrupole moment (field-independent basis, Debye-Ang):
   XX=            -35.7724   YY=            -35.2417   ZZ=            -40.9877
   XY=              0.1579   XZ=              0.3532   YZ=              0.2706
 Traceless Quadrupole moment (field-independent basis, Debye-Ang):
   XX=              1.5615   YY=              2.0922   ZZ=             -3.6538
   XY=              0.1579   XZ=              0.3532   YZ=              0.2706
 Octapole moment (field-independent basis, Debye-Ang**2):
  XXX=            -79.0231  YYY=            -73.8475  ZZZ=            -82.1629  XYY=            -25.9228
  XXY=            -25.5097  XXZ=            -22.9737  XZZ=            -30.0864  YZZ=            -29.9220
  YYZ=            -25.2322  XYZ=              0.2448
 Hexadecapole moment (field-independent basis, Debye-Ang**3):
 XXXX=           -429.8911 YYYY=           -262.0849 ZZZZ=           -475.0073 XXXY=            -55.7931
 XXXZ=            -50.9753 YYYX=            -53.5795 YYYZ=           -107.8296 ZZZX=            -60.2202
 ZZZY=           -127.8092 XXYY=           -116.9657 XXZZ=           -150.4438 YYZZ=           -121.0025
 XXYZ=            -34.8379 YYXZ=            -18.5412 ZZXY=            -21.5649
 N-N= 2.244927449439D+02 E-N=-9.910721182332D+02  KE= 2.321061091069D+02
 Unable to Open any file for archive entry.
 1|1|UNPC-SKCH-134-020|FOpt|RB3LYP|6-31G(d)|C6H10|AL6323|12-Nov-2025|0|
 |# opt=(calcfc,tight,modredundant,maxcycles=200,noeigen) b3lyp/6-31g(d
 ) nosymm scf=tight||TS IRC PM6||0,1|C,-0.6877227485,0.9289858641,0.068
 7278246|C,0.0471877967,-0.1786856512,-0.3495943176|C,1.4444848479,-0.1
 810612388,-0.3341864165|C,2.1737776502,0.9240979818,0.1003077803|C,1.4
 202758455,1.2315867198,2.1710336544|C,0.0209137221,1.2339115094,2.1556
 106696|H,-0.3269183101,1.9307038924,-0.1397163151|H,-1.7695510462,0.85
 53572656,0.1520002157|H,-0.4682581965,-1.1292501511,-0.4789910326|H,1.
 9594132545,-1.1333784551,-0.4522559211|H,1.8210865395,1.9270402432,-0.
 1159754122|H,3.2532528003,0.8467704398,0.2073640364|H,1.9523471507,2.1
 729853488,2.2779576279|H,1.9475725829,0.3658976998,2.557026464|H,-0.51
 02464149,2.1770730497,2.2508692983|H,-0.517615474,0.3699654815,2.52982
 1844||Version=EM64W-G16RevC.01|HF=-234.5444809|RMSD=4.032e-009|RMSF=2.
 014e-003|Dipole=-0.0015922,0.084819,0.156482|Quadrupole=1.1609638,1.55
 55291,-2.7164928,0.1174119,0.2626108,0.2011738|PG=C01 [X(C6H10)]||@
 The archive entry for this job was punched.


 FRICTION IS A DRAG,
 AND ENTROPY AIN'T WHAT IT USED TO BE.
 Job cpu time:       0 days  0 hours  7 minutes 52.0 seconds.
 Elapsed time:       0 days  0 hours  7 minutes 16.9 seconds.
 File lengths (MBytes):  RWF=     27 Int=      0 D2E=      0 Chk=      2 Scr=      1
 Normal termination of Gaussian 16 at Wed Nov 12 15:22:33 2025.
