 Default is to use a total of   8 processors:
                                8 via shared-memory
                                1 via Linda
 Entering Link 1 = C:\G16W\l1.exe PID=     26328.
  
 Copyright (c) 1988-2019, Gaussian, Inc.  All Rights Reserved.
  
 This is part of the Gaussian(R) 16 program.  It is based on
 the Gaussian(R) 09 system (copyright 2009, Gaussian, Inc.),
 the Gaussian(R) 03 system (copyright 2003, Gaussian, Inc.),
 the Gaussian(R) 98 system (copyright 1998, Gaussian, Inc.),
 the Gaussian(R) 94 system (copyright 1995, Gaussian, Inc.),
 the Gaussian 92(TM) system (copyright 1992, Gaussian, Inc.),
 the Gaussian 90(TM) system (copyright 1990, Gaussian, Inc.),
 the Gaussian 88(TM) system (copyright 1988, Gaussian, Inc.),
 the Gaussian 86(TM) system (copyright 1986, Carnegie Mellon
 University), and the Gaussian 82(TM) system (copyright 1983,
 Carnegie Mellon University). Gaussian is a federally registered
 trademark of Gaussian, Inc.
  
 This software contains proprietary and confidential information,
 including trade secrets, belonging to Gaussian, Inc.
  
 This software is provided under written license and may be
 used, copied, transmitted, or stored only in accord with that
 written license.
  
 The following legend is applicable only to US Government
 contracts under FAR:
  
                    RESTRICTED RIGHTS LEGEND
  
 Use, reproduction and disclosure by the US Government is
 subject to restrictions as set forth in subparagraphs (a)
 and (c) of the Commercial Computer Software - Restricted
 Rights clause in FAR 52.227-19.
  
 Gaussian, Inc.
 340 Quinnipiac St., Bldg. 40, Wallingford CT 06492
  
  
 ---------------------------------------------------------------
 Warning -- This program may not be used in any manner that
 competes with the business of Gaussian, Inc. or will provide
 assistance to any competitor of Gaussian, Inc.  The licensee
 of this program is prohibited from giving any competitor of
 Gaussian, Inc. access to this program.  By using this program,
 the user acknowledges that Gaussian, Inc. is engaged in the
 business of creating and licensing software in the field of
 computational chemistry and represents and warrants to the
 licensee that it is not a competitor of Gaussian, Inc. and that
 it will not use this program in any manner prohibited above.
 ---------------------------------------------------------------
  

 Cite this work as:
 Gaussian 16, Revision C.01,
 M. J. Frisch, G. W. Trucks, H. B. Schlegel, G. E. Scuseria, 
 M. A. Robb, J. R. Cheeseman, G. Scalmani, V. Barone, 
 G. A. Petersson, H. Nakatsuji, X. Li, M. Caricato, A. V. Marenich, 
 J. Bloino, B. G. Janesko, R. Gomperts, B. Mennucci, H. P. Hratchian, 
 J. V. Ortiz, A. F. Izmaylov, J. L. Sonnenberg, D. Williams-Young, 
 F. Ding, F. Lipparini, F. Egidi, J. Goings, B. Peng, A. Petrone, 
 T. Henderson, D. Ranasinghe, V. G. Zakrzewski, J. Gao, N. Rega, 
 G. Zheng, W. Liang, M. Hada, M. Ehara, K. Toyota, R. Fukuda, 
 J. Hasegawa, M. Ishida, T. Nakajima, Y. Honda, O. Kitao, H. Nakai, 
 T. Vreven, K. Throssell, J. A. Montgomery, Jr., J. E. Peralta, 
 F. Ogliaro, M. J. Bearpark, J. J. Heyd, E. N. Brothers, K. N. Kudin, 
 V. N. Staroverov, T. A. Keith, R. Kobayashi, J. Normand, 
 K. Raghavachari, A. P. Rendell, J. C. Burant, S. S. Iyengar, 
 J. Tomasi, M. Cossi, J. M. Millam, M. Klene, C. Adamo, R. Cammi, 
 J. W. Ochterski, R. L. Martin, K. Morokuma, O. Farkas, 
 J. B. Foresman, and D. J. Fox, Gaussian, Inc., Wallingford CT, 2019.
 
 ******************************************
 Gaussian 16:  EM64W-G16RevC.01 30-May-2019
                12-Nov-2025 
 ******************************************
 %chk=C:\Users\al6323\OneDrive - Imperial College London\Desktop\TSR202511112\TS_
 guess_opt_TS(Berny)_IRS_DFT_reactants.chk
 Default route: MaxDisk=10GB
 ---------------------------------------------------------------
 # opt=(calcfc,tight) freq b3lyp/6-31g(d) nosymm scf=(xqc,tight)
 ---------------------------------------------------------------
 1/7=10,10=4,18=20,19=15,26=3,38=1/1,3;
 2/9=110,12=2,15=1,17=6,18=5,40=1/2;
 3/5=1,6=6,7=1,11=2,25=1,30=1,71=2,74=-5,140=1/1,2,3;
 4//1;
 5/5=2,8=3,13=1,32=2,38=5/2,8;
 8/6=4,10=90,11=11/1;
 11/6=1,8=1,9=11,15=111,16=1,31=1/1,2,10;
 10/6=1,13=1,31=1/2;
 6/7=2,8=2,9=2,10=2,28=1/1;
 7/10=1,25=1,30=1/1,2,3,16;
 1/7=10,10=4,18=20,19=15,26=3/3(2);
 2/9=110,15=1/2;
 99//99;
 2/9=110,15=1/2;
 3/5=1,6=6,7=1,11=2,25=1,30=1,71=1,74=-5/1,2,3;
 4/5=5,16=3,69=1/1;
 5/5=2,8=3,13=1,32=2,38=5/2,8;
 7/30=1/1,2,3,16;
 1/7=10,18=20,19=15,26=3/3(-5);
 2/9=110,15=1/2;
 6/7=2,8=2,9=2,10=2,19=2,28=1/1;
 99/9=1/99;
 ----------------------
 TS Benry DFT_reactants
 ----------------------
 Symbolic Z-matrix:
 Charge =  0 Multiplicity = 1
 C                    -1.54432   0.03092  -1.30698 
 C                    -0.71627  -1.02275  -1.30758 
 C                     0.74249  -0.97283  -1.48528 
 C                     1.54202   0.04546  -1.14042 
 C                     0.65083   0.85252   2.5825 
 C                    -0.67303   0.93314   2.4597 
 H                    -1.18464   1.04357  -1.47174 
 H                    -2.61341  -0.08929  -1.15663 
 H                    -1.14282  -2.0198   -1.19187 
 H                     1.19307  -1.86359  -1.92424 
 H                     1.15812   0.93582  -0.64906 
 H                     2.61155   0.01236  -1.32766 
 H                     1.19518   1.42289   3.33268 
 H                     1.24398   0.21012   1.93634 
 H                    -1.27064   1.57432   3.10409 
 H                    -1.21087   0.36321   1.70557 
 
 Add virtual bond connecting atoms H14        and H11        Dist= 5.08D+00.

 GradGradGradGradGradGradGradGradGradGradGradGradGradGradGradGradGradGrad
 Berny optimization.
 Initialization pass.
                           ----------------------------
                           !    Initial Parameters    !
                           ! (Angstroms and Degrees)  !
 --------------------------                            --------------------------
 ! Name  Definition              Value          Derivative Info.                !
 --------------------------------------------------------------------------------
 ! R1    R(1,2)                  1.3401         calculate D2E/DX2 analytically  !
 ! R2    R(1,7)                  1.0872         calculate D2E/DX2 analytically  !
 ! R3    R(1,8)                  1.0863         calculate D2E/DX2 analytically  !
 ! R4    R(2,3)                  1.4704         calculate D2E/DX2 analytically  !
 ! R5    R(2,9)                  1.0906         calculate D2E/DX2 analytically  !
 ! R6    R(3,4)                  1.3398         calculate D2E/DX2 analytically  !
 ! R7    R(3,10)                 1.0905         calculate D2E/DX2 analytically  !
 ! R8    R(4,11)                 1.087          calculate D2E/DX2 analytically  !
 ! R9    R(4,12)                 1.0863         calculate D2E/DX2 analytically  !
 ! R10   R(5,6)                  1.332          calculate D2E/DX2 analytically  !
 ! R11   R(5,13)                 1.0883         calculate D2E/DX2 analytically  !
 ! R12   R(5,14)                 1.0872         calculate D2E/DX2 analytically  !
 ! R13   R(6,15)                 1.0879         calculate D2E/DX2 analytically  !
 ! R14   R(6,16)                 1.0876         calculate D2E/DX2 analytically  !
 ! R15   R(11,14)                2.6867         calculate D2E/DX2 analytically  !
 ! A1    A(2,1,7)              121.861          calculate D2E/DX2 analytically  !
 ! A2    A(2,1,8)              121.4106         calculate D2E/DX2 analytically  !
 ! A3    A(7,1,8)              116.7216         calculate D2E/DX2 analytically  !
 ! A4    A(1,2,3)              125.8999         calculate D2E/DX2 analytically  !
 ! A5    A(1,2,9)              118.4954         calculate D2E/DX2 analytically  !
 ! A6    A(3,2,9)              115.5868         calculate D2E/DX2 analytically  !
 ! A7    A(2,3,4)              125.925          calculate D2E/DX2 analytically  !
 ! A8    A(2,3,10)             115.5202         calculate D2E/DX2 analytically  !
 ! A9    A(4,3,10)             118.5465         calculate D2E/DX2 analytically  !
 ! A10   A(3,4,11)             121.8795         calculate D2E/DX2 analytically  !
 ! A11   A(3,4,12)             121.3328         calculate D2E/DX2 analytically  !
 ! A12   A(11,4,12)            116.7821         calculate D2E/DX2 analytically  !
 ! A13   A(6,5,13)             121.9354         calculate D2E/DX2 analytically  !
 ! A14   A(6,5,14)             121.5482         calculate D2E/DX2 analytically  !
 ! A15   A(13,5,14)            116.5163         calculate D2E/DX2 analytically  !
 ! A16   A(5,6,15)             121.8057         calculate D2E/DX2 analytically  !
 ! A17   A(5,6,16)             121.5829         calculate D2E/DX2 analytically  !
 ! A18   A(15,6,16)            116.6109         calculate D2E/DX2 analytically  !
 ! A19   A(4,11,14)            101.6814         calculate D2E/DX2 analytically  !
 ! A20   A(5,14,11)            113.2591         calculate D2E/DX2 analytically  !
 ! D1    D(7,1,2,3)              1.7337         calculate D2E/DX2 analytically  !
 ! D2    D(7,1,2,9)           -176.6533         calculate D2E/DX2 analytically  !
 ! D3    D(8,1,2,3)           -179.2437         calculate D2E/DX2 analytically  !
 ! D4    D(8,1,2,9)              2.3693         calculate D2E/DX2 analytically  !
 ! D5    D(1,2,3,4)             29.1282         calculate D2E/DX2 analytically  !
 ! D6    D(1,2,3,10)          -151.9454         calculate D2E/DX2 analytically  !
 ! D7    D(9,2,3,4)           -152.4436         calculate D2E/DX2 analytically  !
 ! D8    D(9,2,3,10)            26.4828         calculate D2E/DX2 analytically  !
 ! D9    D(2,3,4,11)             2.328          calculate D2E/DX2 analytically  !
 ! D10   D(2,3,4,12)          -178.5537         calculate D2E/DX2 analytically  !
 ! D11   D(10,3,4,11)         -176.569          calculate D2E/DX2 analytically  !
 ! D12   D(10,3,4,12)            2.5492         calculate D2E/DX2 analytically  !
 ! D13   D(3,4,11,14)           86.8661         calculate D2E/DX2 analytically  !
 ! D14   D(12,4,11,14)         -92.2902         calculate D2E/DX2 analytically  !
 ! D15   D(13,5,6,15)            0.0535         calculate D2E/DX2 analytically  !
 ! D16   D(13,5,6,16)          179.7782         calculate D2E/DX2 analytically  !
 ! D17   D(14,5,6,15)          179.9858         calculate D2E/DX2 analytically  !
 ! D18   D(14,5,6,16)           -0.2895         calculate D2E/DX2 analytically  !
 ! D19   D(6,5,14,11)           63.9815         calculate D2E/DX2 analytically  !
 ! D20   D(13,5,14,11)        -116.0827         calculate D2E/DX2 analytically  !
 ! D21   D(4,11,14,5)         -164.1211         calculate D2E/DX2 analytically  !
 --------------------------------------------------------------------------------
 Trust Radius=3.00D-01 FncErr=1.00D-07 GrdErr=1.00D-06 EigMax=2.50D+02 EigMin=1.00D-04
 Number of steps in this run=     66 maximum allowed number of steps=    100.
 GradGradGradGradGradGradGradGradGradGradGradGradGradGradGradGradGradGrad

                          Input orientation:                          
 ---------------------------------------------------------------------
 Center     Atomic      Atomic             Coordinates (Angstroms)
 Number     Number       Type             X           Y           Z
 ---------------------------------------------------------------------
      1          6           0       -1.544321    0.030924   -1.306981
      2          6           0       -0.716266   -1.022751   -1.307585
      3          6           0        0.742494   -0.972828   -1.485279
      4          6           0        1.542020    0.045464   -1.140423
      5          6           0        0.650827    0.852517    2.582501
      6          6           0       -0.673034    0.933139    2.459696
      7          1           0       -1.184640    1.043574   -1.471739
      8          1           0       -2.613408   -0.089293   -1.156629
      9          1           0       -1.142817   -2.019798   -1.191873
     10          1           0        1.193068   -1.863594   -1.924240
     11          1           0        1.158122    0.935819   -0.649056
     12          1           0        2.611555    0.012359   -1.327660
     13          1           0        1.195184    1.422891    3.332684
     14          1           0        1.243982    0.210124    1.936342
     15          1           0       -1.270639    1.574324    3.104086
     16          1           0       -1.210874    0.363212    1.705575
 ---------------------------------------------------------------------
                    Distance matrix (angstroms):
                    1          2          3          4          5
     1  C    0.000000
     2  C    1.340114   0.000000
     3  C    2.503764   1.470391   0.000000
     4  C    3.090867   2.503774   1.339809   0.000000
     5  C    4.541119   4.529718   4.459498   3.912253   0.000000
     6  C    3.970011   4.244971   4.604265   4.319177   1.331987
     7  H    1.087188   2.125092   2.789248   2.922443   4.454471
     8  H    1.086280   2.119735   3.485788   4.157644   5.052062
     9  H    2.092825   1.090614   2.176380   3.387669   5.070824
    10  H    3.385780   2.175509   1.090489   2.092998   5.289802
    11  H    2.924876   2.789800   2.124841   1.086993   3.272193
    12  H    4.155969   3.485147   2.118685   1.086304   4.454175
    13  H    5.564976   5.582732   5.399737   4.693217   1.088313
    14  H    4.280875   3.985676   3.654908   3.095549   1.087208
    15  H    4.681292   5.149268   5.621651   5.316420   2.117803
    16  H    3.049114   3.353306   3.972681   3.972291   2.115266
                    6          7          8          9         10
     6  C    0.000000
     7  H    3.966121   0.000000
     8  H    4.229447   1.850421   0.000000
     9  H    4.719586   3.076414   2.427083   0.000000
    10  H    5.524757   3.782840   4.269265   2.452981   0.000000
    11  H    3.607974   2.485347   3.941182   3.784791   3.076366
    12  H    5.097099   3.936402   5.228749   4.271230   2.426358
    13  H    2.119482   5.374935   6.078323   6.147355   6.199696
    14  H    2.114616   4.267067   4.953340   4.522731   4.382578
    15  H    1.087882   4.607306   4.767006   5.602617   6.570631
    16  H    1.087560   3.249447   3.219328   3.752143   4.890108
                   11         12         13         14         15
    11  H    0.000000
    12  H    1.850878   0.000000
    13  H    4.011591   5.070947   0.000000
    14  H    2.686687   3.544443   1.850123   0.000000
    15  H    4.515821   6.095205   2.481023   3.089981   0.000000
    16  H    3.388849   4.892297   3.091847   2.470426   1.850999
                   16
    16  H    0.000000
 Symmetry turned off by external request.
 Stoichiometry    C6H10
 Framework group  C1[X(C6H10)]
 Deg. of freedom    42
 Full point group                 C1      NOp   1
 Rotational constants (GHZ):           4.0913668           1.5237955           1.2038501
 Standard basis: 6-31G(d) (6D, 7F)
   110 basis functions,   208 primitive gaussians,   110 cartesian basis functions
    23 alpha electrons       23 beta electrons
       nuclear repulsion energy       196.5515825892 Hartrees.
 NAtoms=   16 NActive=   16 NUniq=   16 SFac= 1.00D+00 NAtFMM=   60 NAOKFM=F Big=F
 Integral buffers will be    131072 words long.
 Raffenetti 2 integral format.
 Two-electron integral symmetry is turned off.
 One-electron integrals computed using PRISM.
 NBasis=   110 RedAO= T EigKep=  3.38D-03  NBF=   110
 NBsUse=   110 1.00D-06 EigRej= -1.00D+00 NBFU=   110
 ExpMin= 1.61D-01 ExpMax= 3.05D+03 ExpMxC= 4.57D+02 IAcc=3 IRadAn=         5 AccDes= 0.00D+00
 Harris functional with IExCor=  402 and IRadAn=       5 diagonalized for initial guess.
 HarFok:  IExCor=  402 AccDes= 0.00D+00 IRadAn=         5 IDoV= 1 UseB2=F ITyADJ=14
 ICtDFT=  3500011 ScaDFX=  1.000000  1.000000  1.000000  1.000000
 FoFCou: FMM=F IPFlag=           0 FMFlag=      100000 FMFlg1=           0
         NFxFlg=           0 DoJE=T BraDBF=F KetDBF=T FulRan=T
         wScrn=  0.000000 ICntrl=       500 IOpCl=  0 I1Cent=   200000004 NGrid=           0
         NMat0=    1 NMatS0=      1 NMatT0=    0 NMatD0=    1 NMtDS0=    0 NMtDT0=    0
 Symmetry not used in FoFCou.
 Requested convergence on RMS density matrix=1.00D-08 within  32 cycles.
 Requested convergence on MAX density matrix=1.00D-06.
 Requested convergence on             energy=1.00D-06.
 No special actions if energy rises.
 Integral accuracy reduced to 1.0D-05 until final iterations.
 Initial convergence to 1.0D-05 achieved.  Increase integral accuracy.
 SCF Done:  E(RB3LYP) =  -234.575263846     A.U. after   12 cycles
            NFock= 12  Conv=0.79D-08     -V/T= 2.0104
 QCSCF skips out because SCF is already converged.
 DoSCS=F DFT=T ScalE2(SS,OS)=  1.000000  1.000000
 Range of M.O.s used for correlation:     1   110
 NBasis=   110 NAE=    23 NBE=    23 NFC=     0 NFV=     0
 NROrb=    110 NOA=    23 NOB=    23 NVA=    87 NVB=    87
 Symmetrizing basis deriv contribution to polar:
 IMax=3 JMax=2 DiffMx= 0.00D+00
 G2DrvN: will do    17 centers at a time, making    1 passes.
 Calling FoFCou, ICntrl=  3107 FMM=F I1Cent=   0 AccDes= 0.00D+00.
 End of G2Drv F.D. properties file   721 does not exist.
 End of G2Drv F.D. properties file   722 does not exist.
 End of G2Drv F.D. properties file   788 does not exist.
          IDoAtm=1111111111111111
          Differentiating once with respect to nuclear coordinates.
 Keep R1 ints in memory in canonical form, NReq=26109314.
          There are    51 degrees of freedom in the 1st order CPHF.  IDoFFX=6 NUNeed=     0.
     45 vectors produced by pass  0 Test12= 3.92D-15 1.96D-09 XBig12= 8.43D-02 1.47D-01.
 AX will form    45 AO Fock derivatives at one time.
     45 vectors produced by pass  1 Test12= 3.92D-15 1.96D-09 XBig12= 1.67D-02 6.59D-02.
     45 vectors produced by pass  2 Test12= 3.92D-15 1.96D-09 XBig12= 1.28D-04 2.76D-03.
     45 vectors produced by pass  3 Test12= 3.92D-15 1.96D-09 XBig12= 1.63D-07 8.69D-05.
     45 vectors produced by pass  4 Test12= 3.92D-15 1.96D-09 XBig12= 8.80D-11 2.67D-06.
     21 vectors produced by pass  5 Test12= 3.92D-15 1.96D-09 XBig12= 4.70D-14 3.77D-08.
 InvSVY:  IOpt=1 It=  1 EMax= 3.89D-16
 Solved reduced A of dimension   246 with    51 vectors.
 End of Minotr F.D. properties file   721 does not exist.
 End of Minotr F.D. properties file   722 does not exist.
 End of Minotr F.D. properties file   788 does not exist.

 **********************************************************************

            Population analysis using the SCF Density.

 **********************************************************************

 Alpha  occ. eigenvalues --  -10.19482 -10.19405 -10.18484 -10.18367 -10.17871
 Alpha  occ. eigenvalues --  -10.17780  -0.80126  -0.74919  -0.72613  -0.61802
 Alpha  occ. eigenvalues --   -0.57161  -0.52929  -0.48836  -0.45945  -0.43503
 Alpha  occ. eigenvalues --   -0.42254  -0.41021  -0.36797  -0.34907  -0.34697
 Alpha  occ. eigenvalues --   -0.30937  -0.26153  -0.23293
 Alpha virt. eigenvalues --   -0.02663   0.02278   0.07524   0.10666   0.12045
 Alpha virt. eigenvalues --    0.13414   0.14761   0.15151   0.16568   0.18125
 Alpha virt. eigenvalues --    0.19112   0.21092   0.25102   0.31218   0.33512
 Alpha virt. eigenvalues --    0.33895   0.40445   0.47089   0.49034   0.52235
 Alpha virt. eigenvalues --    0.53602   0.55744   0.57326   0.59388   0.60844
 Alpha virt. eigenvalues --    0.63551   0.64329   0.65522   0.66518   0.68441
 Alpha virt. eigenvalues --    0.69140   0.69711   0.71692   0.84239   0.85336
 Alpha virt. eigenvalues --    0.87144   0.87607   0.88707   0.89399   0.92453
 Alpha virt. eigenvalues --    0.93530   0.96035   0.97394   1.00719   1.04657
 Alpha virt. eigenvalues --    1.11013   1.11228   1.17130   1.21964   1.25607
 Alpha virt. eigenvalues --    1.26435   1.46778   1.50254   1.50573   1.51484
 Alpha virt. eigenvalues --    1.55225   1.65377   1.75692   1.78309   1.83809
 Alpha virt. eigenvalues --    1.89495   1.90232   1.95948   1.99553   2.01067
 Alpha virt. eigenvalues --    2.09461   2.10721   2.12908   2.22291   2.25526
 Alpha virt. eigenvalues --    2.29363   2.32795   2.39179   2.48308   2.51881
 Alpha virt. eigenvalues --    2.58671   2.66671   2.70445   2.71173   2.84585
 Alpha virt. eigenvalues --    3.04523   4.07068   4.12272   4.15001   4.22202
 Alpha virt. eigenvalues --    4.26644   4.45718
          Condensed to atoms (all electrons):
               1          2          3          4          5          6
     1  C    5.035459   0.658185  -0.039921  -0.016825   0.000111  -0.001976
     2  C    0.658185   4.775033   0.436616  -0.039546   0.000048  -0.001024
     3  C   -0.039921   0.436616   4.776142   0.658213  -0.000352   0.000074
     4  C   -0.016825  -0.039546   0.658213   5.047509  -0.002543  -0.000122
     5  C    0.000111   0.000048  -0.000352  -0.002543   4.931852   0.685395
     6  C   -0.001976  -0.001024   0.000074  -0.000122   0.685395   4.936437
     7  H    0.367729  -0.033380  -0.011211   0.005656  -0.000008   0.000043
     8  H    0.363231  -0.023621   0.004673   0.000113   0.000004  -0.000057
     9  H   -0.052626   0.362670  -0.045251   0.005334   0.000004  -0.000009
    10  H    0.005295  -0.045354   0.362971  -0.052343  -0.000001  -0.000001
    11  H    0.005301  -0.011256  -0.033076   0.364621   0.002357   0.001117
    12  H    0.000115   0.004648  -0.023541   0.363055   0.000002  -0.000001
    13  H    0.000000   0.000000   0.000003   0.000027   0.375851  -0.036861
    14  H   -0.000131   0.000007   0.001277   0.004481   0.372456  -0.034094
    15  H    0.000035   0.000008   0.000001  -0.000002  -0.037110   0.375140
    16  H    0.006786   0.003001  -0.000200  -0.000244  -0.033426   0.370087
               7          8          9         10         11         12
     1  C    0.367729   0.363231  -0.052626   0.005295   0.005301   0.000115
     2  C   -0.033380  -0.023621   0.362670  -0.045354  -0.011256   0.004648
     3  C   -0.011211   0.004673  -0.045251   0.362971  -0.033076  -0.023541
     4  C    0.005656   0.000113   0.005334  -0.052343   0.364621   0.363055
     5  C   -0.000008   0.000004   0.000004  -0.000001   0.002357   0.000002
     6  C    0.000043  -0.000057  -0.000009  -0.000001   0.001117  -0.000001
     7  H    0.556947  -0.041547   0.005921   0.000075   0.002267  -0.000117
     8  H   -0.041547   0.561238  -0.007702  -0.000170  -0.000106   0.000002
     9  H    0.005921  -0.007702   0.604155  -0.004124   0.000077  -0.000171
    10  H    0.000075  -0.000170  -0.004124   0.604169   0.005799  -0.007710
    11  H    0.002267  -0.000106   0.000077   0.005799   0.550012  -0.040827
    12  H   -0.000117   0.000002  -0.000171  -0.007710  -0.040827   0.561237
    13  H    0.000000   0.000000   0.000000   0.000000   0.000004  -0.000001
    14  H   -0.000019  -0.000003  -0.000016   0.000002   0.000172   0.000029
    15  H    0.000001  -0.000002   0.000000   0.000000   0.000001   0.000000
    16  H   -0.000021   0.000222   0.000038   0.000005   0.000165   0.000004
              13         14         15         16
     1  C    0.000000  -0.000131   0.000035   0.006786
     2  C    0.000000   0.000007   0.000008   0.003001
     3  C    0.000003   0.001277   0.000001  -0.000200
     4  C    0.000027   0.004481  -0.000002  -0.000244
     5  C    0.375851   0.372456  -0.037110  -0.033426
     6  C   -0.036861  -0.034094   0.375140   0.370087
     7  H    0.000000  -0.000019   0.000001  -0.000021
     8  H    0.000000  -0.000003  -0.000002   0.000222
     9  H    0.000000  -0.000016   0.000000   0.000038
    10  H    0.000000   0.000002   0.000000   0.000005
    11  H    0.000004   0.000172   0.000001   0.000165
    12  H   -0.000001   0.000029   0.000000   0.000004
    13  H    0.568792  -0.042505  -0.008787   0.005011
    14  H   -0.042505   0.551657   0.005102  -0.008860
    15  H   -0.008787   0.005102   0.569583  -0.041928
    16  H    0.005011  -0.008860  -0.041928   0.547957
 Mulliken charges:
               1
     1  C   -0.330768
     2  C   -0.086035
     3  C   -0.086417
     4  C   -0.337386
     5  C   -0.294639
     6  C   -0.294147
     7  H    0.147662
     8  H    0.143724
     9  H    0.131700
    10  H    0.131389
    11  H    0.153372
    12  H    0.143274
    13  H    0.138468
    14  H    0.150444
    15  H    0.137956
    16  H    0.151402
 Sum of Mulliken charges =   0.00000
 Mulliken charges with hydrogens summed into heavy atoms:
               1
     1  C   -0.039381
     2  C    0.045665
     3  C    0.044972
     4  C   -0.040739
     5  C   -0.005728
     6  C   -0.004788
 APT charges:
               1
     1  C   -0.723821
     2  C   -0.589489
     3  C   -0.574861
     4  C   -0.750430
     5  C   -0.748177
     6  C   -0.791007
     7  H    0.298944
     8  H    0.541052
     9  H    0.476528
    10  H    0.558548
    11  H    0.175194
    12  H    0.594664
    13  H    0.710042
    14  H    0.083601
    15  H    0.683357
    16  H    0.055856
 Sum of APT charges =   0.00000
 APT charges with hydrogens summed into heavy atoms:
               1
     1  C    0.116175
     2  C   -0.112961
     3  C   -0.016314
     4  C    0.019427
     5  C    0.045466
     6  C   -0.051793
 Electronic spatial extent (au):  <R**2>=           1002.1531
 Charge=              0.0000 electrons
 Dipole moment (field-independent basis, Debye):
    X=             -0.0123    Y=             -0.1689    Z=             -0.2373  Tot=              0.2916
 Quadrupole moment (field-independent basis, Debye-Ang):
   XX=            -34.9518   YY=            -36.6202   ZZ=            -40.7778
   XY=             -0.1201   XZ=             -0.3576   YZ=              2.1345
 Traceless Quadrupole moment (field-independent basis, Debye-Ang):
   XX=              2.4982   YY=              0.8297   ZZ=             -3.3279
   XY=             -0.1201   XZ=             -0.3576   YZ=              2.1345
 Octapole moment (field-independent basis, Debye-Ang**2):
  XXX=             -0.0658  YYY=             -6.9350  ZZZ=              4.2248  XYY=             -0.9927
  XXY=             -0.1803  XXZ=             -0.9898  XZZ=              3.0163  YZZ=              4.5203
  YYZ=             -3.6822  XYZ=              1.1129
 Hexadecapole moment (field-independent basis, Debye-Ang**3):
 XXXX=           -330.0449 YYYY=           -205.7273 ZZZZ=           -848.8335 XXXY=              1.8873
 XXXZ=             -6.1687 YYYX=              1.2160 YYYZ=           -136.2884 ZZZX=             -2.5821
 ZZZY=           -116.5829 XXYY=            -91.8612 XXZZ=           -188.2210 YYZZ=           -157.4769
 XXYZ=            -41.5491 YYXZ=             -2.4056 ZZXY=             -4.5553
 N-N= 1.965515825892D+02 E-N=-9.349765387610D+02  KE= 2.321610333543D+02
  Exact polarizability:       0.000       0.000       0.000       0.000       0.000       0.000
 Approx polarizability:     133.958      -2.380      86.580       3.882      15.093      50.527
 Calling FoFJK, ICntrl=    100127 FMM=F ISym2X=0 I1Cent= 0 IOpClX= 0 NMat=1 NMatS=1 NMatT=0.
 -------------------------------------------------------------------
 Center     Atomic                   Forces (Hartrees/Bohr)
 Number     Number              X              Y              Z
 -------------------------------------------------------------------
      1        6           0.000025833   -0.000093306   -0.000173034
      2        6          -0.000067397   -0.000015683   -0.000019550
      3        6          -0.000004366    0.000003439   -0.000028773
      4        6          -0.000049715    0.000041265   -0.000058136
      5        6          -0.000150530    0.000050977    0.000342453
      6        6           0.000254253    0.000027263   -0.000072622
      7        1          -0.000033925   -0.000110807   -0.000012638
      8        1           0.000001124   -0.000002437   -0.000014066
      9        1           0.000027836    0.000080569    0.000003615
     10        1           0.000002834    0.000002419    0.000000132
     11        1          -0.000005644   -0.000000416   -0.000011375
     12        1          -0.000012153    0.000007175   -0.000003313
     13        1          -0.000213236   -0.000210137   -0.000195927
     14        1           0.000013699    0.000027235    0.000050384
     15        1          -0.000006137   -0.000019290   -0.000024244
     16        1           0.000217526    0.000211735    0.000217093
 -------------------------------------------------------------------
 Cartesian Forces:  Max     0.000342453 RMS     0.000107946
 FormGI is forming the generalized inverse of G from B-inverse, IUseBI=4.

 GradGradGradGradGradGradGradGradGradGradGradGradGradGradGradGradGradGrad
 Berny optimization.
 Internal  Forces:  Max     0.000843203 RMS     0.000268151
 Search for a local minimum.
 Step number   1 out of a maximum of   66
 All quantities printed in internal units (Hartrees-Bohrs-Radians)
 Mixed Optimization -- En-DIIS/RFO-DIIS
 Second derivative matrix not updated -- analytic derivatives used.
 ITU=  0
     Eigenvalues ---    0.00030   0.00061   0.00067   0.00219   0.00308
     Eigenvalues ---    0.00693   0.01879   0.02229   0.02503   0.02604
     Eigenvalues ---    0.02961   0.03166   0.03379   0.03802   0.03976
     Eigenvalues ---    0.04414   0.10652   0.10756   0.10916   0.11089
     Eigenvalues ---    0.11317   0.11353   0.12130   0.13622   0.14229
     Eigenvalues ---    0.15053   0.17362   0.18055   0.34341   0.35200
     Eigenvalues ---    0.35357   0.35855   0.35939   0.36193   0.36307
     Eigenvalues ---    0.36342   0.36446   0.36542   0.36681   0.61359
     Eigenvalues ---    0.62705   0.65047
 RFO step:  Lambda=-2.79081207D-04 EMin= 3.00537991D-04
 Linear search not attempted -- first point.
 Maximum step size (   0.300) exceeded in Quadratic search.
    -- Step size scaled by   0.962
 Iteration  1 RMS(Cart)=  0.17093356 RMS(Int)=  0.01513612
 Iteration  2 RMS(Cart)=  0.04293428 RMS(Int)=  0.00072529
 Iteration  3 RMS(Cart)=  0.00113231 RMS(Int)=  0.00000108
 Iteration  4 RMS(Cart)=  0.00000078 RMS(Int)=  0.00000099
 Variable       Old X    -DE/DX   Delta X   Delta X   Delta X     New X
                                 (Linear)    (Quad)   (Total)
    R1        2.53245  -0.00016   0.00000  -0.00006  -0.00006   2.53238
    R2        2.05449  -0.00011   0.00000  -0.00001  -0.00001   2.05448
    R3        2.05277   0.00000   0.00000  -0.00003  -0.00003   2.05275
    R4        2.77864   0.00003   0.00000   0.00010   0.00010   2.77874
    R5        2.06096  -0.00008   0.00000  -0.00004  -0.00004   2.06093
    R6        2.53187   0.00020   0.00000  -0.00026  -0.00026   2.53162
    R7        2.06073   0.00000   0.00000   0.00020   0.00020   2.06092
    R8        2.05412   0.00017   0.00000  -0.00007  -0.00007   2.05405
    R9        2.05282  -0.00001   0.00000   0.00008   0.00008   2.05290
   R10        2.51709  -0.00046   0.00000  -0.00059  -0.00059   2.51650
   R11        2.05661  -0.00035   0.00000  -0.00094  -0.00094   2.05567
   R12        2.05453   0.00014   0.00000   0.00008   0.00008   2.05461
   R13        2.05580  -0.00002   0.00000  -0.00004  -0.00004   2.05576
   R14        2.05519  -0.00037   0.00000  -0.00015  -0.00015   2.05504
   R15        5.07710   0.00028   0.00000   0.25697   0.25697   5.33407
    A1        2.12688  -0.00001   0.00000  -0.00216  -0.00216   2.12472
    A2        2.11902   0.00000   0.00000   0.00083   0.00083   2.11984
    A3        2.03718   0.00001   0.00000   0.00128   0.00128   2.03846
    A4        2.19737   0.00016   0.00000  -0.00308  -0.00308   2.19429
    A5        2.06813  -0.00009   0.00000   0.00103   0.00103   2.06916
    A6        2.01737  -0.00007   0.00000   0.00200   0.00199   2.01936
    A7        2.19781   0.00064   0.00000  -0.00339  -0.00339   2.19441
    A8        2.01621  -0.00031   0.00000   0.00170   0.00170   2.01791
    A9        2.06903  -0.00033   0.00000   0.00168   0.00168   2.07070
   A10        2.12720   0.00084   0.00000  -0.00060  -0.00060   2.12659
   A11        2.11766  -0.00042   0.00000   0.00050   0.00050   2.11816
   A12        2.03823  -0.00043   0.00000   0.00005   0.00005   2.03828
   A13        2.12817  -0.00017   0.00000   0.00021   0.00021   2.12838
   A14        2.12142   0.00027   0.00000  -0.00106  -0.00106   2.12035
   A15        2.03359  -0.00010   0.00000   0.00085   0.00085   2.03445
   A16        2.12591   0.00005   0.00000   0.00025   0.00025   2.12616
   A17        2.12202  -0.00006   0.00000  -0.00005  -0.00006   2.12197
   A18        2.03524   0.00001   0.00000  -0.00018  -0.00018   2.03506
   A19        1.77467   0.00009   0.00000  -0.14039  -0.14039   1.63429
   A20        1.97674   0.00050   0.00000  -0.05210  -0.05210   1.92464
    D1        0.03026  -0.00003   0.00000   0.00390   0.00391   0.03416
    D2       -3.08318   0.00008   0.00000   0.00628   0.00628  -3.07690
    D3       -3.12839  -0.00007   0.00000   0.00051   0.00051  -3.12788
    D4        0.04135   0.00004   0.00000   0.00289   0.00289   0.04424
    D5        0.50838   0.00015   0.00000   0.04795   0.04795   0.55633
    D6       -2.65195   0.00022   0.00000   0.04690   0.04690  -2.60504
    D7       -2.66064   0.00004   0.00000   0.04562   0.04562  -2.61502
    D8        0.46221   0.00011   0.00000   0.04458   0.04458   0.50679
    D9        0.04063   0.00024   0.00000   0.00623   0.00623   0.04686
   D10       -3.11635   0.00020   0.00000   0.00212   0.00212  -3.11423
   D11       -3.08171   0.00018   0.00000   0.00730   0.00730  -3.07441
   D12        0.04449   0.00014   0.00000   0.00319   0.00319   0.04769
   D13        1.51610   0.00030   0.00000   0.06485   0.06485   1.58095
   D14       -1.61077   0.00034   0.00000   0.06877   0.06877  -1.54200
   D15        0.00093  -0.00003   0.00000  -0.00123  -0.00123  -0.00030
   D16        3.13772  -0.00007   0.00000   0.00268   0.00268   3.14040
   D17        3.14134   0.00003   0.00000   0.00292   0.00292  -3.13892
   D18       -0.00505  -0.00001   0.00000   0.00683   0.00683   0.00177
   D19        1.11669  -0.00027   0.00000  -0.25603  -0.25603   0.86066
   D20       -2.02603  -0.00020   0.00000  -0.25210  -0.25210  -2.27812
   D21       -2.86445  -0.00082   0.00000  -0.05741  -0.05741  -2.92186
         Item               Value     Threshold  Converged?
 Maximum Force            0.000843     0.000015     NO 
 RMS     Force            0.000268     0.000010     NO 
 Maximum Displacement     0.538462     0.000060     NO 
 RMS     Displacement     0.203873     0.000040     NO 
 Predicted change in Energy=-1.726334D-04
 GradGradGradGradGradGradGradGradGradGradGradGradGradGradGradGradGradGrad

                          Input orientation:                          
 ---------------------------------------------------------------------
 Center     Atomic      Atomic             Coordinates (Angstroms)
 Number     Number       Type             X           Y           Z
 ---------------------------------------------------------------------
      1          6           0       -1.619010   -0.050033   -1.470104
      2          6           0       -0.745449   -1.054728   -1.317485
      3          6           0        0.717188   -0.943787   -1.420393
      4          6           0        1.445531    0.130609   -1.088862
      5          6           0        0.731891    0.753576    2.674289
      6          6           0       -0.549553    1.029666    2.439710
      7          1           0       -1.294544    0.956688   -1.721508
      8          1           0       -2.688688   -0.208221   -1.366466
      9          1           0       -1.131461   -2.056546   -1.125777
     10          1           0        1.233067   -1.832997   -1.784493
     11          1           0        0.991880    1.021806   -0.662904
     12          1           0        2.524134    0.144119   -1.217631
     13          1           0        1.252844    1.137949    3.548479
     14          1           0        1.312185    0.132119    1.996668
     15          1           0       -1.134554    1.652790    3.112711
     16          1           0       -1.064208    0.643075    1.563187
 ---------------------------------------------------------------------
                    Distance matrix (angstroms):
                    1          2          3          4          5
     1  C    0.000000
     2  C    1.340080   0.000000
     3  C    2.501817   1.470443   0.000000
     4  C    3.093443   2.501537   1.339673   0.000000
     5  C    4.832031   4.624582   4.432570   3.880551   0.000000
     6  C    4.194775   4.301115   4.516586   4.152045   1.331673
     7  H    1.087184   2.123802   2.783800   2.930983   4.844660
     8  H    1.086266   2.120177   3.484818   4.157359   5.380810
     9  H    2.093409   1.090595   2.177736   3.380222   5.080293
    10  H    3.378187   2.176769   1.090594   2.093990   5.179023
    11  H    2.935500   2.785459   2.124336   1.086955   3.358035
    12  H    4.155368   3.483873   2.118893   1.086346   4.327888
    13  H    5.902967   5.699001   5.413893   4.749399   1.087815
    14  H    4.543522   4.077508   3.631515   3.088410   1.087253
    15  H    4.912891   5.206601   5.542580   5.160144   2.117645
    16  H    3.160548   3.358931   3.820112   3.687110   2.114883
                    6          7          8          9         10
     6  C    0.000000
     7  H    4.228011   0.000000
     8  H    4.538197   1.851136   0.000000
     9  H    4.751423   3.075885   2.428825   0.000000
    10  H    5.405226   3.764987   4.265537   2.464726   0.000000
    11  H    3.464432   2.520440   3.943925   3.768167   3.076692
    12  H    4.858795   3.936555   5.226835   4.267873   2.428410
    13  H    2.118898   5.856177   6.442400   6.143157   6.104712
    14  H    2.113751   4.615169   5.237698   4.528943   4.262056
    15  H    1.087860   4.886699   5.093301   5.632403   6.460569
    16  H    1.087481   3.307663   3.456372   3.810907   4.755563
                   11         12         13         14         15
    11  H    0.000000
    12  H    1.850907   0.000000
    13  H    4.221058   5.031866   0.000000
    14  H    2.822669   3.435212   1.850225   0.000000
    15  H    4.378942   5.866340   2.480852   3.089422   0.000000
    16  H    3.053919   4.567068   3.091118   2.469053   1.850810
                   16
    16  H    0.000000
 Symmetry turned off by external request.
 Stoichiometry    C6H10
 Framework group  C1[X(C6H10)]
 Deg. of freedom    42
 Full point group                 C1      NOp   1
 Rotational constants (GHZ):           4.1302514           1.4760937           1.1880866
 Standard basis: 6-31G(d) (6D, 7F)
   110 basis functions,   208 primitive gaussians,   110 cartesian basis functions
    23 alpha electrons       23 beta electrons
       nuclear repulsion energy       196.0269889780 Hartrees.
 NAtoms=   16 NActive=   16 NUniq=   16 SFac= 1.00D+00 NAtFMM=   60 NAOKFM=F Big=F
 Integral buffers will be    131072 words long.
 Raffenetti 2 integral format.
 Two-electron integral symmetry is turned off.
 One-electron integrals computed using PRISM.
 NBasis=   110 RedAO= T EigKep=  3.48D-03  NBF=   110
 NBsUse=   110 1.00D-06 EigRej= -1.00D+00 NBFU=   110
 Initial guess from the checkpoint file:  "C:\Users\al6323\OneDrive - Imperial College London\Desktop\TSR202511112\TS_guess_opt_TS(Berny)_IRS_DFT_reactants.chk"
 B after Tr=    -0.004674   -0.000215    0.003109
         Rot=    0.999992   -0.000246   -0.004008   -0.000769 Ang=  -0.47 deg.
 ExpMin= 1.61D-01 ExpMax= 3.05D+03 ExpMxC= 4.57D+02 IAcc=3 IRadAn=         5 AccDes= 0.00D+00
 Harris functional with IExCor=  402 and IRadAn=       5 diagonalized for initial guess.
 HarFok:  IExCor=  402 AccDes= 0.00D+00 IRadAn=         5 IDoV= 1 UseB2=F ITyADJ=14
 ICtDFT=  3500011 ScaDFX=  1.000000  1.000000  1.000000  1.000000
 FoFCou: FMM=F IPFlag=           0 FMFlag=      100000 FMFlg1=           0
         NFxFlg=           0 DoJE=T BraDBF=F KetDBF=T FulRan=T
         wScrn=  0.000000 ICntrl=       500 IOpCl=  0 I1Cent=   200000004 NGrid=           0
         NMat0=    1 NMatS0=      1 NMatT0=    0 NMatD0=    1 NMtDS0=    0 NMtDT0=    0
 Symmetry not used in FoFCou.
 Requested convergence on RMS density matrix=1.00D-08 within  32 cycles.
 Requested convergence on MAX density matrix=1.00D-06.
 Requested convergence on             energy=1.00D-06.
 No special actions if energy rises.
 Integral accuracy reduced to 1.0D-05 until final iterations.
 Initial convergence to 1.0D-05 achieved.  Increase integral accuracy.
 SCF Done:  E(RB3LYP) =  -234.575381689     A.U. after   13 cycles
            NFock= 13  Conv=0.48D-08     -V/T= 2.0104
 QCSCF skips out because SCF is already converged.
 Calling FoFJK, ICntrl=      2127 FMM=F ISym2X=0 I1Cent= 0 IOpClX= 0 NMat=1 NMatS=1 NMatT=0.
 -------------------------------------------------------------------
 Center     Atomic                   Forces (Hartrees/Bohr)
 Number     Number              X              Y              Z
 -------------------------------------------------------------------
      1        6           0.000131277   -0.000069520   -0.000008718
      2        6          -0.000104042    0.000065542   -0.000039532
      3        6          -0.000057788    0.000038875    0.000021676
      4        6           0.000009433   -0.000085403   -0.000010307
      5        6          -0.000024616    0.000070636   -0.000056433
      6        6           0.000149874    0.000098485   -0.000038317
      7        1          -0.000027911   -0.000007475    0.000046761
      8        1           0.000023435    0.000009690    0.000026454
      9        1           0.000008478    0.000005475    0.000028857
     10        1           0.000016356    0.000011239   -0.000022632
     11        1           0.000054301    0.000085774   -0.000168227
     12        1          -0.000002968    0.000019100    0.000024496
     13        1          -0.000048114   -0.000045839    0.000017218
     14        1          -0.000007400   -0.000061009    0.000111787
     15        1          -0.000036753   -0.000037027   -0.000043141
     16        1          -0.000083560   -0.000098542    0.000110057
 -------------------------------------------------------------------
 Cartesian Forces:  Max     0.000168227 RMS     0.000063608

 GradGradGradGradGradGradGradGradGradGradGradGradGradGradGradGradGradGrad
 Berny optimization.
 Using GEDIIS/GDIIS optimizer.
 FormGI is forming the generalized inverse of G from B-inverse, IUseBI=4.
 Internal  Forces:  Max     0.000201489 RMS     0.000073574
 Search for a local minimum.
 Step number   2 out of a maximum of   66
 All quantities printed in internal units (Hartrees-Bohrs-Radians)
 Mixed Optimization -- En-DIIS/RFO-DIIS
 Swapping is turned off.
 Update second derivatives using D2CorX and points    1    2
 DE= -1.18D-04 DEPred=-1.73D-04 R= 6.83D-01
 TightC=F SS=  1.41D+00  RLast= 4.89D-01 DXNew= 5.0454D-01 1.4655D+00
 Trust test= 6.83D-01 RLast= 4.89D-01 DXMaxT set to 5.05D-01
 ITU=  1  0
     Eigenvalues ---    0.00044   0.00061   0.00064   0.00264   0.00342
     Eigenvalues ---    0.00689   0.01846   0.02228   0.02503   0.02604
     Eigenvalues ---    0.02961   0.03166   0.03397   0.03813   0.03980
     Eigenvalues ---    0.04415   0.10641   0.10761   0.10911   0.11088
     Eigenvalues ---    0.11317   0.11359   0.12112   0.13617   0.14228
     Eigenvalues ---    0.14989   0.17362   0.17968   0.34339   0.35200
     Eigenvalues ---    0.35357   0.35828   0.35924   0.36187   0.36288
     Eigenvalues ---    0.36342   0.36439   0.36535   0.36681   0.61370
     Eigenvalues ---    0.62679   0.64996
 En-DIIS/RFO-DIIS/Sim-DIIS IScMMF=       -3 using points:     2    1
 RFO step:  Lambda=-3.91511673D-05.
 DidBck=F Rises=F RFO-DIIS coefs:    0.86648    0.13352
 Iteration  1 RMS(Cart)=  0.05048813 RMS(Int)=  0.00093332
 Iteration  2 RMS(Cart)=  0.00239992 RMS(Int)=  0.00000230
 Iteration  3 RMS(Cart)=  0.00000398 RMS(Int)=  0.00000005
 Iteration  4 RMS(Cart)=  0.00000000 RMS(Int)=  0.00000005
 Variable       Old X    -DE/DX   Delta X   Delta X   Delta X     New X
                                 (Linear)    (Quad)   (Total)
    R1        2.53238  -0.00014   0.00001  -0.00029  -0.00028   2.53211
    R2        2.05448  -0.00003   0.00000  -0.00014  -0.00014   2.05434
    R3        2.05275  -0.00002   0.00000  -0.00002  -0.00002   2.05273
    R4        2.77874  -0.00003  -0.00001  -0.00004  -0.00006   2.77868
    R5        2.06093   0.00000   0.00000  -0.00007  -0.00007   2.06086
    R6        2.53162  -0.00005   0.00003   0.00000   0.00003   2.53165
    R7        2.06092   0.00001  -0.00003   0.00002  -0.00001   2.06092
    R8        2.05405  -0.00002   0.00001   0.00000   0.00001   2.05405
    R9        2.05290  -0.00001  -0.00001  -0.00003  -0.00004   2.05285
   R10        2.51650  -0.00004   0.00008  -0.00027  -0.00019   2.51631
   R11        2.05567  -0.00003   0.00013  -0.00026  -0.00014   2.05554
   R12        2.05461   0.00001  -0.00001  -0.00002  -0.00003   2.05458
   R13        2.05576  -0.00003   0.00001  -0.00008  -0.00008   2.05568
   R14        2.05504  -0.00001   0.00002  -0.00026  -0.00024   2.05480
   R15        5.33407   0.00011  -0.03431   0.10929   0.07497   5.40905
    A1        2.12472   0.00003   0.00029   0.00039   0.00068   2.12540
    A2        2.11984  -0.00002  -0.00011  -0.00014  -0.00025   2.11959
    A3        2.03846  -0.00002  -0.00017  -0.00024  -0.00041   2.03805
    A4        2.19429  -0.00004   0.00041   0.00042   0.00083   2.19512
    A5        2.06916   0.00003  -0.00014  -0.00009  -0.00023   2.06894
    A6        2.01936   0.00001  -0.00027  -0.00031  -0.00058   2.01878
    A7        2.19441  -0.00010   0.00045   0.00076   0.00121   2.19562
    A8        2.01791   0.00007  -0.00023  -0.00022  -0.00044   2.01746
    A9        2.07070   0.00003  -0.00022  -0.00054  -0.00077   2.06993
   A10        2.12659  -0.00015   0.00008   0.00062   0.00070   2.12729
   A11        2.11816   0.00010  -0.00007  -0.00009  -0.00015   2.11801
   A12        2.03828   0.00005  -0.00001  -0.00052  -0.00053   2.03775
   A13        2.12838  -0.00002  -0.00003  -0.00039  -0.00042   2.12796
   A14        2.12035  -0.00002   0.00014   0.00047   0.00061   2.12096
   A15        2.03445   0.00003  -0.00011  -0.00007  -0.00019   2.03426
   A16        2.12616   0.00004  -0.00003   0.00062   0.00059   2.12674
   A17        2.12197   0.00004   0.00001  -0.00010  -0.00009   2.12187
   A18        2.03506  -0.00008   0.00002  -0.00052  -0.00050   2.03457
   A19        1.63429   0.00008   0.01874  -0.00829   0.01045   1.64474
   A20        1.92464  -0.00007   0.00696  -0.02134  -0.01438   1.91026
    D1        0.03416  -0.00001  -0.00052  -0.00074  -0.00127   0.03290
    D2       -3.07690  -0.00006  -0.00084  -0.00147  -0.00231  -3.07921
    D3       -3.12788   0.00005  -0.00007   0.00027   0.00020  -3.12768
    D4        0.04424   0.00000  -0.00039  -0.00046  -0.00085   0.04339
    D5        0.55633  -0.00005  -0.00640  -0.00442  -0.01083   0.54550
    D6       -2.60504  -0.00007  -0.00626  -0.00451  -0.01077  -2.61581
    D7       -2.61502   0.00001  -0.00609  -0.00371  -0.00980  -2.62482
    D8        0.50679  -0.00002  -0.00595  -0.00379  -0.00975   0.49705
    D9        0.04686  -0.00010  -0.00083  -0.00150  -0.00233   0.04453
   D10       -3.11423  -0.00008  -0.00028  -0.00089  -0.00118  -3.11541
   D11       -3.07441  -0.00008  -0.00097  -0.00142  -0.00239  -3.07680
   D12        0.04769  -0.00005  -0.00043  -0.00081  -0.00124   0.04645
   D13        1.58095  -0.00009  -0.00866  -0.04491  -0.05357   1.52738
   D14       -1.54200  -0.00011  -0.00918  -0.04549  -0.05467  -1.59667
   D15       -0.00030   0.00002   0.00016   0.00035   0.00051   0.00021
   D16        3.14040   0.00018  -0.00036   0.00236   0.00201  -3.14078
   D17       -3.13892  -0.00005  -0.00039  -0.00059  -0.00098  -3.13991
   D18        0.00177   0.00010  -0.00091   0.00142   0.00051   0.00228
   D19        0.86066   0.00017   0.03419   0.05078   0.08496   0.94562
   D20       -2.27812   0.00010   0.03366   0.04988   0.08354  -2.19458
   D21       -2.92186   0.00020   0.00767  -0.03870  -0.03103  -2.95290
         Item               Value     Threshold  Converged?
 Maximum Force            0.000201     0.000015     NO 
 RMS     Force            0.000074     0.000010     NO 
 Maximum Displacement     0.125608     0.000060     NO 
 RMS     Displacement     0.050954     0.000040     NO 
 Predicted change in Energy=-2.010725D-05
 GradGradGradGradGradGradGradGradGradGradGradGradGradGradGradGradGradGrad

                          Input orientation:                          
 ---------------------------------------------------------------------
 Center     Atomic      Atomic             Coordinates (Angstroms)
 Number     Number       Type             X           Y           Z
 ---------------------------------------------------------------------
      1          6           0       -1.599964   -0.036941   -1.426764
      2          6           0       -0.728574   -1.047253   -1.302789
      3          6           0        0.731994   -0.944036   -1.437716
      4          6           0        1.474191    0.126487   -1.124832
      5          6           0        0.699333    0.747551    2.662504
      6          6           0       -0.585216    1.022841    2.445160
      7          1           0       -1.276577    0.970702   -1.675535
      8          1           0       -2.667766   -0.190825   -1.299997
      9          1           0       -1.115582   -2.048460   -1.110099
     10          1           0        1.234860   -1.836820   -1.811145
     11          1           0        1.036017    1.022533   -0.692882
     12          1           0        2.549850    0.132412   -1.276562
     13          1           0        1.243522    1.169480    3.504536
     14          1           0        1.258775    0.088167    2.003476
     15          1           0       -1.149672    1.682975    3.100112
     16          1           0       -1.123937    0.597270    1.601950
 ---------------------------------------------------------------------
                    Distance matrix (angstroms):
                    1          2          3          4          5
     1  C    0.000000
     2  C    1.339933   0.000000
     3  C    2.502192   1.470414   0.000000
     4  C    3.093267   2.502300   1.339691   0.000000
     5  C    4.756501   4.580807   4.435576   3.915360   0.000000
     6  C    4.140610   4.284036   4.547568   4.217755   1.331574
     7  H    1.087111   2.124003   2.785163   2.929624   4.772064
     8  H    1.086256   2.119892   3.484918   4.157785   5.283873
     9  H    2.093110   1.090560   2.177297   3.381942   5.034295
    10  H    3.379872   2.176445   1.090591   2.093533   5.194161
    11  H    2.934188   2.787433   2.124759   1.086958   3.383428
    12  H    4.155983   3.484302   2.118799   1.086323   4.395344
    13  H    5.818813   5.649198   5.399487   4.751010   1.087742
    14  H    4.467055   4.021209   3.631080   3.135951   1.087236
    15  H    4.863484   5.197789   5.570794   5.211283   2.117862
    16  H    3.130804   3.361291   3.880679   3.795688   2.114632
                    6          7          8          9         10
     6  C    0.000000
     7  H    4.178615   0.000000
     8  H    4.453785   1.850832   0.000000
     9  H    4.728006   3.075870   2.428197   0.000000
    10  H    5.441184   3.769335   4.266270   2.461876   0.000000
    11  H    3.532097   2.513241   3.944468   3.772856   3.076679
    12  H    4.946991   3.937442   5.227671   4.268407   2.427520
    13  H    2.118505   5.763987   6.342881   6.100439   6.106913
    14  H    2.114002   4.554338   5.138919   4.460616   4.272878
    15  H    1.087819   4.830139   5.017638   5.625891   6.495799
    16  H    1.087352   3.302220   3.380207   3.788821   4.810191
                   11         12         13         14         15
    11  H    0.000000
    12  H    1.850591   0.000000
    13  H    4.205113   5.063685   0.000000
    14  H    2.862344   3.525264   1.850041   0.000000
    15  H    4.427214   5.936833   2.480850   3.089764   0.000000
    16  H    3.180016   4.690270   3.090650   2.469357   1.850381
                   16
    16  H    0.000000
 Symmetry turned off by external request.
 Stoichiometry    C6H10
 Framework group  C1[X(C6H10)]
 Deg. of freedom    42
 Full point group                 C1      NOp   1
 Rotational constants (GHZ):           4.0895746           1.4868598           1.1922249
 Standard basis: 6-31G(d) (6D, 7F)
   110 basis functions,   208 primitive gaussians,   110 cartesian basis functions
    23 alpha electrons       23 beta electrons
       nuclear repulsion energy       196.0450548144 Hartrees.
 NAtoms=   16 NActive=   16 NUniq=   16 SFac= 1.00D+00 NAtFMM=   60 NAOKFM=F Big=F
 Integral buffers will be    131072 words long.
 Raffenetti 2 integral format.
 Two-electron integral symmetry is turned off.
 One-electron integrals computed using PRISM.
 NBasis=   110 RedAO= T EigKep=  3.46D-03  NBF=   110
 NBsUse=   110 1.00D-06 EigRej= -1.00D+00 NBFU=   110
 Initial guess from the checkpoint file:  "C:\Users\al6323\OneDrive - Imperial College London\Desktop\TSR202511112\TS_guess_opt_TS(Berny)_IRS_DFT_reactants.chk"
 B after Tr=     0.002462    0.000761   -0.000357
         Rot=    0.999999   -0.000642    0.001109   -0.000855 Ang=  -0.18 deg.
 ExpMin= 1.61D-01 ExpMax= 3.05D+03 ExpMxC= 4.57D+02 IAcc=3 IRadAn=         5 AccDes= 0.00D+00
 Harris functional with IExCor=  402 and IRadAn=       5 diagonalized for initial guess.
 HarFok:  IExCor=  402 AccDes= 0.00D+00 IRadAn=         5 IDoV= 1 UseB2=F ITyADJ=14
 ICtDFT=  3500011 ScaDFX=  1.000000  1.000000  1.000000  1.000000
 FoFCou: FMM=F IPFlag=           0 FMFlag=      100000 FMFlg1=           0
         NFxFlg=           0 DoJE=T BraDBF=F KetDBF=T FulRan=T
         wScrn=  0.000000 ICntrl=       500 IOpCl=  0 I1Cent=   200000004 NGrid=           0
         NMat0=    1 NMatS0=      1 NMatT0=    0 NMatD0=    1 NMtDS0=    0 NMtDT0=    0
 Symmetry not used in FoFCou.
 Requested convergence on RMS density matrix=1.00D-08 within  32 cycles.
 Requested convergence on MAX density matrix=1.00D-06.
 Requested convergence on             energy=1.00D-06.
 No special actions if energy rises.
 Integral accuracy reduced to 1.0D-05 until final iterations.
 Initial convergence to 1.0D-05 achieved.  Increase integral accuracy.
 SCF Done:  E(RB3LYP) =  -234.575398402     A.U. after   11 cycles
            NFock= 11  Conv=0.47D-08     -V/T= 2.0104
 QCSCF skips out because SCF is already converged.
 Calling FoFJK, ICntrl=      2127 FMM=F ISym2X=0 I1Cent= 0 IOpClX= 0 NMat=1 NMatS=1 NMatT=0.
 -------------------------------------------------------------------
 Center     Atomic                   Forces (Hartrees/Bohr)
 Number     Number              X              Y              Z
 -------------------------------------------------------------------
      1        6          -0.000042824    0.000024234    0.000002920
      2        6           0.000028963   -0.000017661    0.000007202
      3        6           0.000021407   -0.000005783   -0.000003411
      4        6          -0.000001886    0.000006973    0.000007667
      5        6           0.000020697   -0.000026856    0.000016477
      6        6          -0.000066794   -0.000029978    0.000000431
      7        1           0.000006058    0.000006987   -0.000004854
      8        1          -0.000001965   -0.000000168    0.000001162
      9        1          -0.000004463   -0.000008526   -0.000004119
     10        1          -0.000004134   -0.000001942    0.000000204
     11        1          -0.000017903    0.000010918   -0.000041355
     12        1           0.000001746   -0.000007495    0.000000427
     13        1           0.000026500    0.000014507    0.000018659
     14        1           0.000015886    0.000009672    0.000034174
     15        1           0.000012399    0.000011189    0.000016802
     16        1           0.000006312    0.000013927   -0.000052385
 -------------------------------------------------------------------
 Cartesian Forces:  Max     0.000066794 RMS     0.000020308

 GradGradGradGradGradGradGradGradGradGradGradGradGradGradGradGradGradGrad
 Berny optimization.
 Using GEDIIS/GDIIS optimizer.
 FormGI is forming the generalized inverse of G from B-inverse, IUseBI=4.
 Internal  Forces:  Max     0.000050813 RMS     0.000018653
 Search for a local minimum.
 Step number   3 out of a maximum of   66
 All quantities printed in internal units (Hartrees-Bohrs-Radians)
 Mixed Optimization -- En-DIIS/RFO-DIIS
 Swapping is turned off.
 Update second derivatives using D2CorX and points    1    2    3
 DE= -1.67D-05 DEPred=-2.01D-05 R= 8.31D-01
 TightC=F SS=  1.41D+00  RLast= 1.66D-01 DXNew= 8.4853D-01 4.9672D-01
 Trust test= 8.31D-01 RLast= 1.66D-01 DXMaxT set to 5.05D-01
 ITU=  1  1  0
     Eigenvalues ---    0.00041   0.00062   0.00070   0.00270   0.00333
     Eigenvalues ---    0.00693   0.01859   0.02229   0.02504   0.02604
     Eigenvalues ---    0.02962   0.03166   0.03412   0.03816   0.03979
     Eigenvalues ---    0.04451   0.10650   0.10764   0.10913   0.11089
     Eigenvalues ---    0.11318   0.11368   0.12124   0.13620   0.14239
     Eigenvalues ---    0.15026   0.17364   0.18012   0.34341   0.35200
     Eigenvalues ---    0.35358   0.35852   0.35933   0.36189   0.36305
     Eigenvalues ---    0.36342   0.36443   0.36538   0.36681   0.61395
     Eigenvalues ---    0.62701   0.65043
 En-DIIS/RFO-DIIS/Sim-DIIS IScMMF=       -3 using points:     3    2    1
 RFO step:  Lambda=-9.55976459D-06.
 DidBck=F Rises=F RFO-DIIS coefs:    1.00288    0.21437   -0.21726
 Iteration  1 RMS(Cart)=  0.05737466 RMS(Int)=  0.00135208
 Iteration  2 RMS(Cart)=  0.00321172 RMS(Int)=  0.00000310
 Iteration  3 RMS(Cart)=  0.00000473 RMS(Int)=  0.00000025
 Iteration  4 RMS(Cart)=  0.00000000 RMS(Int)=  0.00000025
 Variable       Old X    -DE/DX   Delta X   Delta X   Delta X     New X
                                 (Linear)    (Quad)   (Total)
    R1        2.53211   0.00005  -0.00001   0.00012   0.00011   2.53221
    R2        2.05434   0.00001   0.00000   0.00006   0.00006   2.05440
    R3        2.05273   0.00000  -0.00001  -0.00008  -0.00008   2.05264
    R4        2.77868   0.00001   0.00002   0.00010   0.00012   2.77880
    R5        2.06086   0.00001  -0.00001  -0.00003  -0.00003   2.06082
    R6        2.53165   0.00000  -0.00006   0.00004  -0.00001   2.53164
    R7        2.06092   0.00000   0.00004  -0.00012  -0.00008   2.06084
    R8        2.05405   0.00000  -0.00002   0.00004   0.00002   2.05407
    R9        2.05285   0.00000   0.00002  -0.00009  -0.00007   2.05279
   R10        2.51631   0.00005  -0.00013   0.00008  -0.00005   2.51626
   R11        2.05554   0.00003  -0.00020   0.00029   0.00009   2.05562
   R12        2.05458  -0.00001   0.00002   0.00003   0.00005   2.05463
   R13        2.05568   0.00001  -0.00001   0.00007   0.00006   2.05574
   R14        2.05480   0.00003  -0.00003   0.00013   0.00010   2.05489
   R15        5.40905   0.00003   0.05604   0.06406   0.12010   5.52915
    A1        2.12540  -0.00001  -0.00047   0.00069   0.00023   2.12562
    A2        2.11959   0.00000   0.00018  -0.00018   0.00000   2.11959
    A3        2.03805   0.00000   0.00028  -0.00049  -0.00021   2.03783
    A4        2.19512   0.00001  -0.00067   0.00110   0.00044   2.19556
    A5        2.06894  -0.00001   0.00022  -0.00040  -0.00018   2.06876
    A6        2.01878   0.00000   0.00043  -0.00068  -0.00024   2.01854
    A7        2.19562  -0.00001  -0.00073   0.00098   0.00025   2.19587
    A8        2.01746   0.00000   0.00037  -0.00046  -0.00009   2.01737
    A9        2.06993   0.00001   0.00036  -0.00052  -0.00016   2.06978
   A10        2.12729  -0.00001  -0.00013  -0.00001  -0.00014   2.12715
   A11        2.11801   0.00000   0.00011   0.00019   0.00030   2.11830
   A12        2.03775   0.00001   0.00001  -0.00014  -0.00013   2.03762
   A13        2.12796   0.00003   0.00004   0.00001   0.00006   2.12802
   A14        2.12096  -0.00003  -0.00023   0.00027   0.00005   2.12101
   A15        2.03426   0.00001   0.00018  -0.00029  -0.00010   2.03416
   A16        2.12674  -0.00002   0.00006  -0.00057  -0.00051   2.12623
   A17        2.12187   0.00000  -0.00001   0.00050   0.00049   2.12236
   A18        2.03457   0.00002  -0.00004   0.00007   0.00003   2.03459
   A19        1.64474  -0.00002  -0.03047  -0.01884  -0.04931   1.59543
   A20        1.91026   0.00001  -0.01136   0.04638   0.03502   1.94528
    D1        0.03290   0.00000   0.00084  -0.00069   0.00016   0.03306
    D2       -3.07921   0.00000   0.00136  -0.00185  -0.00050  -3.07971
    D3       -3.12768   0.00000   0.00011   0.00068   0.00079  -3.12689
    D4        0.04339   0.00000   0.00062  -0.00049   0.00013   0.04352
    D5        0.54550   0.00000   0.01039  -0.01700  -0.00662   0.53888
    D6       -2.61581   0.00000   0.01016  -0.01687  -0.00671  -2.62252
    D7       -2.62482   0.00000   0.00988  -0.01586  -0.00598  -2.63080
    D8        0.49705   0.00000   0.00966  -0.01572  -0.00607   0.49098
    D9        0.04453   0.00000   0.00135  -0.00353  -0.00218   0.04234
   D10       -3.11541   0.00000   0.00046  -0.00073  -0.00027  -3.11568
   D11       -3.07680   0.00000   0.00158  -0.00367  -0.00209  -3.07890
   D12        0.04645   0.00000   0.00069  -0.00088  -0.00019   0.04626
   D13        1.52738   0.00000   0.01393   0.00176   0.01570   1.54308
   D14       -1.59667   0.00000   0.01478  -0.00091   0.01387  -1.58280
   D15        0.00021   0.00000  -0.00027   0.00029   0.00002   0.00023
   D16       -3.14078  -0.00004   0.00059  -0.00081  -0.00023  -3.14101
   D17       -3.13991   0.00001   0.00063  -0.00099  -0.00036  -3.14026
   D18        0.00228  -0.00003   0.00148  -0.00209  -0.00060   0.00168
   D19        0.94562  -0.00004  -0.05538  -0.01197  -0.06735   0.87827
   D20       -2.19458  -0.00003  -0.05453  -0.01318  -0.06771  -2.26228
   D21       -2.95290   0.00003  -0.01256   0.08039   0.06782  -2.88507
         Item               Value     Threshold  Converged?
 Maximum Force            0.000051     0.000015     NO 
 RMS     Force            0.000019     0.000010     NO 
 Maximum Displacement     0.155789     0.000060     NO 
 RMS     Displacement     0.058010     0.000040     NO 
 Predicted change in Energy=-4.280850D-06
 GradGradGradGradGradGradGradGradGradGradGradGradGradGradGradGradGradGrad

                          Input orientation:                          
 ---------------------------------------------------------------------
 Center     Atomic      Atomic             Coordinates (Angstroms)
 Number     Number       Type             X           Y           Z
 ---------------------------------------------------------------------
      1          6           0       -1.607033   -0.029801   -1.466508
      2          6           0       -0.741188   -1.036501   -1.286401
      3          6           0        0.721360   -0.945303   -1.408659
      4          6           0        1.464224    0.137468   -1.143112
      5          6           0        0.717487    0.749279    2.681167
      6          6           0       -0.570649    0.996568    2.451872
      7          1           0       -1.276962    0.964365   -1.757316
      8          1           0       -2.676740   -0.173804   -1.344654
      9          1           0       -1.134582   -2.026283   -1.052195
     10          1           0        1.225062   -1.858076   -1.728705
     11          1           0        1.024249    1.057009   -0.765796
     12          1           0        2.541644    0.131869   -1.281510
     13          1           0        1.231461    1.140583    3.556377
     14          1           0        1.310391    0.144474    1.999395
     15          1           0       -1.168108    1.602002    3.130038
     16          1           0       -1.079363    0.602236    1.575426
 ---------------------------------------------------------------------
                    Distance matrix (angstroms):
                    1          2          3          4          5
     1  C    0.000000
     2  C    1.339989   0.000000
     3  C    2.502580   1.470480   0.000000
     4  C    3.092763   2.502514   1.339684   0.000000
     5  C    4.818046   4.588936   4.426997   3.944241   0.000000
     6  C    4.181056   4.258771   4.510416   4.219321   1.331549
     7  H    1.087144   2.124213   2.785981   2.928328   4.870752
     8  H    1.086213   2.119906   3.485167   4.157534   5.346035
     9  H    2.093038   1.090541   2.177178   3.382879   5.007184
    10  H    3.381139   2.176410   1.090550   2.093398   5.148097
    11  H    2.931859   2.787576   2.124680   1.086969   3.474242
    12  H    4.155946   3.484551   2.118938   1.086287   4.405854
    13  H    5.886954   5.664233   5.409502   4.810990   1.087788
    14  H    4.533677   4.049708   3.626211   3.146278   1.087262
    15  H    4.897313   5.162256   5.537023   5.228178   2.117567
    16  H    3.151392   3.315098   3.813430   3.751839   2.114936
                    6          7          8          9         10
     6  C    0.000000
     7  H    4.268159   0.000000
     8  H    4.496554   1.850701   0.000000
     9  H    4.661988   3.075946   2.428057   0.000000
    10  H    5.371294   3.771885   4.267121   2.460463   0.000000
    11  H    3.591760   2.507442   3.943006   3.774819   3.076563
    12  H    4.936822   3.937156   5.227710   4.269056   2.427603
    13  H    2.118554   5.878654   6.404823   6.071749   6.076520
    14  H    2.114028   4.634599   5.213558   4.472391   4.232756
    15  H    1.087849   4.929976   5.045030   5.536844   6.427036
    16  H    1.087403   3.358177   3.417707   3.717062   4.720254
                   11         12         13         14         15
    11  H    0.000000
    12  H    1.850496   0.000000
    13  H    4.327945   5.112655   0.000000
    14  H    2.925899   3.504352   1.850043   0.000000
    15  H    4.503440   5.948555   2.480444   3.089612   0.000000
    16  H    3.180146   4.636273   3.090937   2.469863   1.850466
                   16
    16  H    0.000000
 Symmetry turned off by external request.
 Stoichiometry    C6H10
 Framework group  C1[X(C6H10)]
 Deg. of freedom    42
 Full point group                 C1      NOp   1
 Rotational constants (GHZ):           4.0762316           1.4789392           1.1897967
 Standard basis: 6-31G(d) (6D, 7F)
   110 basis functions,   208 primitive gaussians,   110 cartesian basis functions
    23 alpha electrons       23 beta electrons
       nuclear repulsion energy       195.8993552582 Hartrees.
 NAtoms=   16 NActive=   16 NUniq=   16 SFac= 1.00D+00 NAtFMM=   60 NAOKFM=F Big=F
 Integral buffers will be    131072 words long.
 Raffenetti 2 integral format.
 Two-electron integral symmetry is turned off.
 One-electron integrals computed using PRISM.
 NBasis=   110 RedAO= T EigKep=  3.44D-03  NBF=   110
 NBsUse=   110 1.00D-06 EigRej= -1.00D+00 NBFU=   110
 Initial guess from the checkpoint file:  "C:\Users\al6323\OneDrive - Imperial College London\Desktop\TSR202511112\TS_guess_opt_TS(Berny)_IRS_DFT_reactants.chk"
 B after Tr=    -0.001664    0.000715    0.002567
         Rot=    0.999999   -0.000874   -0.000806    0.000435 Ang=  -0.15 deg.
 ExpMin= 1.61D-01 ExpMax= 3.05D+03 ExpMxC= 4.57D+02 IAcc=3 IRadAn=         5 AccDes= 0.00D+00
 Harris functional with IExCor=  402 and IRadAn=       5 diagonalized for initial guess.
 HarFok:  IExCor=  402 AccDes= 0.00D+00 IRadAn=         5 IDoV= 1 UseB2=F ITyADJ=14
 ICtDFT=  3500011 ScaDFX=  1.000000  1.000000  1.000000  1.000000
 FoFCou: FMM=F IPFlag=           0 FMFlag=      100000 FMFlg1=           0
         NFxFlg=           0 DoJE=T BraDBF=F KetDBF=T FulRan=T
         wScrn=  0.000000 ICntrl=       500 IOpCl=  0 I1Cent=   200000004 NGrid=           0
         NMat0=    1 NMatS0=      1 NMatT0=    0 NMatD0=    1 NMtDS0=    0 NMtDT0=    0
 Symmetry not used in FoFCou.
 Requested convergence on RMS density matrix=1.00D-08 within  32 cycles.
 Requested convergence on MAX density matrix=1.00D-06.
 Requested convergence on             energy=1.00D-06.
 No special actions if energy rises.
 Integral accuracy reduced to 1.0D-05 until final iterations.
 Initial convergence to 1.0D-05 achieved.  Increase integral accuracy.
 SCF Done:  E(RB3LYP) =  -234.575403771     A.U. after   11 cycles
            NFock= 11  Conv=0.71D-08     -V/T= 2.0104
 QCSCF skips out because SCF is already converged.
 Calling FoFJK, ICntrl=      2127 FMM=F ISym2X=0 I1Cent= 0 IOpClX= 0 NMat=1 NMatS=1 NMatT=0.
 -------------------------------------------------------------------
 Center     Atomic                   Forces (Hartrees/Bohr)
 Number     Number              X              Y              Z
 -------------------------------------------------------------------
      1        6           0.000003132    0.000022254    0.000003437
      2        6           0.000007137   -0.000008668    0.000023473
      3        6          -0.000009280   -0.000012630   -0.000005373
      4        6           0.000014917    0.000011409   -0.000001035
      5        6           0.000015215   -0.000018906    0.000014953
      6        6          -0.000004547    0.000010668   -0.000007969
      7        1           0.000000404   -0.000003291   -0.000008561
      8        1          -0.000007465   -0.000007908   -0.000003660
      9        1           0.000005722    0.000003781    0.000001880
     10        1          -0.000001463   -0.000000135    0.000003480
     11        1           0.000000121    0.000018993    0.000003884
     12        1           0.000002829   -0.000002342   -0.000011624
     13        1           0.000004227    0.000006438    0.000001204
     14        1          -0.000020566   -0.000006673   -0.000010438
     15        1          -0.000000737    0.000001100   -0.000002421
     16        1          -0.000009645   -0.000014089   -0.000001229
 -------------------------------------------------------------------
 Cartesian Forces:  Max     0.000023473 RMS     0.000009764

 GradGradGradGradGradGradGradGradGradGradGradGradGradGradGradGradGradGrad
 Berny optimization.
 Using GEDIIS/GDIIS optimizer.
 FormGI is forming the generalized inverse of G from B-inverse, IUseBI=4.
 Internal  Forces:  Max     0.000058545 RMS     0.000015252
 Search for a local minimum.
 Step number   4 out of a maximum of   66
 All quantities printed in internal units (Hartrees-Bohrs-Radians)
 Mixed Optimization -- En-DIIS/RFO-DIIS
 Swapping is turned off.
 Update second derivatives using D2CorX and points    1    2    3    4
 DE= -5.37D-06 DEPred=-4.28D-06 R= 1.25D+00
 TightC=F SS=  1.41D+00  RLast= 1.80D-01 DXNew= 8.4853D-01 5.4012D-01
 Trust test= 1.25D+00 RLast= 1.80D-01 DXMaxT set to 5.40D-01
 ITU=  1  1  1  0
     Eigenvalues ---    0.00015   0.00073   0.00104   0.00277   0.00378
     Eigenvalues ---    0.00703   0.01898   0.02229   0.02508   0.02608
     Eigenvalues ---    0.02976   0.03173   0.03412   0.03827   0.03992
     Eigenvalues ---    0.04458   0.10656   0.10765   0.10917   0.11090
     Eigenvalues ---    0.11318   0.11367   0.12137   0.13623   0.14247
     Eigenvalues ---    0.15076   0.17364   0.18079   0.34343   0.35201
     Eigenvalues ---    0.35359   0.35864   0.35943   0.36192   0.36316
     Eigenvalues ---    0.36342   0.36449   0.36543   0.36682   0.61404
     Eigenvalues ---    0.62716   0.65073
 En-DIIS/RFO-DIIS/Sim-DIIS IScMMF=       -3 using points:     4    3    2    1
 RFO step:  Lambda=-8.64551813D-06.
 DidBck=F Rises=F RFO-DIIS coefs:    1.48347    0.13973   -0.49517   -0.12804
 Iteration  1 RMS(Cart)=  0.07249530 RMS(Int)=  0.00188558
 Iteration  2 RMS(Cart)=  0.00480668 RMS(Int)=  0.00000296
 Iteration  3 RMS(Cart)=  0.00000645 RMS(Int)=  0.00000027
 Iteration  4 RMS(Cart)=  0.00000000 RMS(Int)=  0.00000027
 Variable       Old X    -DE/DX   Delta X   Delta X   Delta X     New X
                                 (Linear)    (Quad)   (Total)
    R1        2.53221   0.00001  -0.00013   0.00013   0.00000   2.53222
    R2        2.05440   0.00000  -0.00006   0.00008   0.00002   2.05443
    R3        2.05264   0.00001  -0.00005   0.00002  -0.00004   2.05261
    R4        2.77880  -0.00001   0.00004   0.00006   0.00010   2.77890
    R5        2.06082   0.00000  -0.00006  -0.00001  -0.00007   2.06075
    R6        2.53164   0.00000  -0.00002   0.00008   0.00006   2.53170
    R7        2.06084   0.00000  -0.00002  -0.00002  -0.00004   2.06080
    R8        2.05407   0.00000   0.00000   0.00003   0.00004   2.05411
    R9        2.05279   0.00000  -0.00005  -0.00002  -0.00007   2.05272
   R10        2.51626   0.00002  -0.00022   0.00009  -0.00013   2.51614
   R11        2.05562   0.00001  -0.00016   0.00020   0.00003   2.05566
   R12        2.05463  -0.00001   0.00001   0.00002   0.00003   2.05466
   R13        2.05574   0.00000  -0.00003   0.00005   0.00002   2.05576
   R14        2.05489   0.00001  -0.00012   0.00013   0.00001   2.05490
   R15        5.52915   0.00000   0.13769  -0.02622   0.11147   5.64062
    A1        2.12562   0.00000   0.00025  -0.00014   0.00011   2.12573
    A2        2.11959  -0.00001  -0.00005   0.00004  -0.00001   2.11959
    A3        2.03783   0.00000  -0.00019   0.00009  -0.00010   2.03773
    A4        2.19556   0.00000   0.00033  -0.00042  -0.00009   2.19547
    A5        2.06876   0.00000  -0.00009   0.00019   0.00009   2.06885
    A6        2.01854   0.00000  -0.00022   0.00022  -0.00001   2.01853
    A7        2.19587  -0.00002   0.00044  -0.00049  -0.00005   2.19582
    A8        2.01737   0.00001  -0.00010   0.00021   0.00011   2.01748
    A9        2.06978   0.00001  -0.00034   0.00029  -0.00005   2.06972
   A10        2.12715  -0.00003   0.00029  -0.00085  -0.00056   2.12659
   A11        2.11830   0.00001   0.00011   0.00042   0.00053   2.11883
   A12        2.03762   0.00002  -0.00038   0.00043   0.00005   2.03767
   A13        2.12802   0.00001  -0.00021  -0.00003  -0.00024   2.12778
   A14        2.12101  -0.00002   0.00026  -0.00026   0.00000   2.12101
   A15        2.03416   0.00001  -0.00006   0.00029   0.00023   2.03439
   A16        2.12623   0.00000   0.00015   0.00005   0.00020   2.12643
   A17        2.12236   0.00000   0.00017  -0.00060  -0.00043   2.12193
   A18        2.03459   0.00000  -0.00032   0.00055   0.00023   2.03482
   A19        1.59543  -0.00005  -0.03530  -0.03750  -0.07280   1.52263
   A20        1.94528  -0.00001   0.00130   0.05252   0.05382   1.99910
    D1        0.03306   0.00001  -0.00021   0.00008  -0.00013   0.03292
    D2       -3.07971   0.00001  -0.00088   0.00078  -0.00010  -3.07981
    D3       -3.12689  -0.00001   0.00057  -0.00061  -0.00004  -3.12693
    D4        0.04352   0.00000  -0.00009   0.00009   0.00000   0.04352
    D5        0.53888   0.00002  -0.00381   0.00270  -0.00111   0.53778
    D6       -2.62252   0.00000  -0.00395   0.00292  -0.00103  -2.62355
    D7       -2.63080   0.00001  -0.00316   0.00202  -0.00114  -2.63194
    D8        0.49098   0.00000  -0.00330   0.00224  -0.00106   0.48991
    D9        0.04234   0.00000  -0.00171   0.00074  -0.00097   0.04137
   D10       -3.11568  -0.00002  -0.00060   0.00089   0.00029  -3.11539
   D11       -3.07890   0.00002  -0.00157   0.00052  -0.00105  -3.07995
   D12        0.04626   0.00000  -0.00045   0.00066   0.00021   0.04648
   D13        1.54308  -0.00006  -0.01749  -0.02663  -0.04411   1.49897
   D14       -1.58280  -0.00004  -0.01856  -0.02677  -0.04533  -1.62813
   D15        0.00023   0.00000   0.00017  -0.00039  -0.00022   0.00002
   D16       -3.14101   0.00001   0.00148  -0.00105   0.00044  -3.14057
   D17       -3.14026   0.00001  -0.00041   0.00055   0.00014  -3.14012
   D18        0.00168   0.00001   0.00090  -0.00011   0.00079   0.00247
   D19        0.87827   0.00001  -0.01239  -0.00198  -0.01437   0.86390
   D20       -2.26228   0.00002  -0.01295  -0.00109  -0.01404  -2.27632
   D21       -2.88507   0.00002   0.00610   0.00386   0.00996  -2.87511
         Item               Value     Threshold  Converged?
 Maximum Force            0.000059     0.000015     NO 
 RMS     Force            0.000015     0.000010     NO 
 Maximum Displacement     0.230258     0.000060     NO 
 RMS     Displacement     0.074115     0.000040     NO 
 Predicted change in Energy=-4.177979D-06
 GradGradGradGradGradGradGradGradGradGradGradGradGradGradGradGradGradGrad

                          Input orientation:                          
 ---------------------------------------------------------------------
 Center     Atomic      Atomic             Coordinates (Angstroms)
 Number     Number       Type             X           Y           Z
 ---------------------------------------------------------------------
      1          6           0       -1.599417   -0.024890   -1.491125
      2          6           0       -0.734755   -1.016522   -1.236953
      3          6           0        0.727951   -0.936162   -1.365395
      4          6           0        1.471799    0.162817   -1.181621
      5          6           0        0.706629    0.715807    2.664156
      6          6           0       -0.583352    0.980351    2.467152
      7          1           0       -1.268266    0.944774   -1.854440
      8          1           0       -2.669284   -0.158281   -1.359188
      9          1           0       -1.129211   -1.985848   -0.930347
     10          1           0        1.230889   -1.870766   -1.616042
     11          1           0        1.031946    1.108451   -0.875272
     12          1           0        2.549193    0.146489   -1.319083
     13          1           0        1.233568    1.053557    3.553865
     14          1           0        1.288043    0.150315    1.940034
     15          1           0       -1.169502    1.546782    3.187583
     16          1           0       -1.104977    0.639209    1.576096
 ---------------------------------------------------------------------
                    Distance matrix (angstroms):
                    1          2          3          4          5
     1  C    0.000000
     2  C    1.339992   0.000000
     3  C    2.502572   1.470532   0.000000
     4  C    3.092474   2.502555   1.339715   0.000000
     5  C    4.809662   4.505242   4.355082   3.959960   0.000000
     6  C    4.208427   4.210798   4.481178   4.266796   1.331482
     7  H    1.087155   2.124289   2.786031   2.927814   4.936633
     8  H    1.086193   2.119887   3.485160   4.157307   5.324295
[...]

 Dipole polarizability, Alpha (input orientation).
 (esu units = cm**3 , SI units = C**2 m**2 J**-1)
 Alpha(0;0):
               (au)            (10**-24 esu)      (10**-40 SI)
   iso        0.611079D+02      0.905526D+01      0.100753D+02
   aniso      0.380554D+02      0.563924D+01      0.627450D+01
   xx         0.855599D+02      0.126787D+02      0.141069D+02
   yx        -0.292458D+01     -0.433379D+00     -0.482199D+00
   yy         0.534640D+02      0.792255D+01      0.881503D+01
   zx         0.217802D+01      0.322750D+00      0.359107D+00
   zy        -0.140608D+00     -0.208360D-01     -0.231832D-01
   zz         0.442997D+02      0.656454D+01      0.730404D+01

 ----------------------------------------------------------------------

 Dipole orientation:
     6         -3.05763899         -1.60967194          2.32960805
     6         -1.43336913          0.28832851          2.74310735
     6          1.31947435          0.04006533          3.03180761
     6          2.77168029         -1.72853394          1.94827754
     6          1.42888075          1.77627067         -4.82622709
     6         -1.03162660          1.27605686         -4.98669530
     1         -2.43572258         -3.56494694          2.22535922
     1         -5.06985533         -1.26810420          2.11202942
     1         -2.18042722          2.19896022          2.93541886
     1          2.22146532          1.46428985          4.21693030
     1          1.99362232         -3.13593434          0.66988438
     1          4.79337812         -1.81152781          2.29331759
     1          2.50886022          2.44621487         -6.44200904
     1          2.46160925          1.53118157         -3.06687504
     1         -2.07637147          1.51454066         -6.74101479
     1         -2.09960661          0.60783987         -3.36339129

 Electric dipole moment (dipole orientation):
 (Debye = 10**-18 statcoulomb cm , SI units = C m)
                  (au)            (Debye)         (10**-30 SI)
   Tot        0.151850D+00      0.385964D+00      0.128744D+01
   x          0.000000D+00      0.000000D+00      0.000000D+00
   y          0.000000D+00      0.000000D+00      0.000000D+00
   z          0.151850D+00      0.385964D+00      0.128744D+01

 Dipole polarizability, Alpha (dipole orientation).
 (esu units = cm**3 , SI units = C**2 m**2 J**-1)
 Alpha(0;0):
               (au)            (10**-24 esu)      (10**-40 SI)
   iso        0.611079D+02      0.905526D+01      0.100753D+02
   aniso      0.380554D+02      0.563924D+01      0.627450D+01
   xx         0.855964D+02      0.126841D+02      0.141129D+02
   yx         0.318629D+01      0.472159D+00      0.525348D+00
   yy         0.506226D+02      0.750149D+01      0.834653D+01
   zx         0.105786D+01      0.156758D+00      0.174417D+00
   zy         0.431365D+01      0.639217D+00      0.711224D+00
   zz         0.471047D+02      0.698020D+01      0.776651D+01

 ----------------------------------------------------------------------
 Unable to Open any file for archive entry.
 1|1|UNPC-SKCH-134-020|Freq|RB3LYP|6-31G(d)|C6H10|AL6323|12-Nov-2025|0|
 |#N Geom=AllCheck Guess=TCheck SCRF=Check GenChk RB3LYP/6-31G(d) Freq|
 |TS Benry DFT_reactants||0,1|C,-1.5717794659,-0.0056463448,-1.54687083
 09|C,-0.7154523471,-0.9507128861,-1.1357806389|C,0.7464258314,-0.91455
 17526,-1.2916688712|C,1.5058629005,0.188883163,-1.3219470868|C,0.66934
 9598,0.6687984902,2.6612962603|C,-0.6321357032,0.9231353943,2.54277973
 86|H,-1.2348210956,0.8834357983,-2.0740537873|H,-2.6412520819,-0.10012
 77327,-1.3823462337|H,-1.1169621942,-1.847141256,-0.6623958531|H,1.235
 4874586,-1.8860143686,-1.3705709524|H,1.080767711,1.1814018134,-1.1952
 816076|H,2.5811172048,0.1323645743,-1.464953228|H,1.2112621767,0.86278
 21608,3.5843794857|H,1.2450699193,0.2567392639,1.8360627654|H,-1.21409
 79375,1.3365232747,3.3636523565|H,-1.1675892848,0.7262142079,1.6171172
 433||Version=EM64W-G16RevC.01|HF=-234.5754237|RMSD=1.247e-009|RMSF=5.5
 36e-007|ZeroPoint=0.1373596|Thermal=0.1472536|ETot=-234.4281701|HTot=-
 234.4272259|GTot=-234.4770414|Dipole=0.0046133,-0.0855218,-0.1253919|D
 ipoleDeriv=-0.06106,0.0321061,-0.0388809,0.0260504,-0.0623199,-0.20272
 97,-0.0774238,-0.1241518,-0.2227867,0.145976,0.035495,-0.0262327,0.167
 5358,0.0639173,-0.0702446,-0.0846653,-0.1626623,-0.0790383,0.1619724,-
 0.0376676,-0.0068467,-0.1847719,0.1207158,0.0644023,-0.0049459,0.06851
 41,-0.137861,-0.0463925,-0.0634823,-0.1017753,-0.0580014,0.0043394,0.0
 069971,-0.0504992,0.0002359,-0.3074663,-0.0144741,-0.0472483,0.015419,
 -0.0289155,-0.2043772,0.1284745,0.0582837,0.109093,0.0908818,-0.011958
 3,-0.0524182,0.0147743,-0.0684386,-0.2029234,0.114717,-0.0308908,0.121
 8361,0.0894659,0.0265534,-0.0558273,0.0461409,-0.0156617,-0.0168454,0.
 0946127,0.0329993,0.0836103,0.0859996,-0.0938035,-0.000438,0.023479,-0
 .0020797,0.0728894,0.0453105,0.0508373,0.0424304,0.1188816,-0.0103854,
 -0.0451904,0.029553,-0.0458777,-0.064741,0.0909424,0.047753,0.0859169,
 0.0809498,-0.0198809,0.0638928,0.0161985,0.0703964,-0.0973956,-0.01283
 78,0.0234274,-0.0016726,0.1174235,0.0131522,0.0765195,0.0236691,0.0367
 302,-0.0551757,-0.030682,0.0206272,-0.0115004,0.1458447,-0.0956686,-0.
 0049545,0.0334782,0.0076743,0.0508443,-0.0111868,0.0429338,-0.004854,0
 .1364659,0.0093516,0.0052635,-0.0650798,-0.0042774,0.1106461,-0.056700
 1,-0.0898412,-0.0496818,-0.0784451,-0.0027303,0.0426266,0.0588955,0.03
 86266,0.0836149,-0.0633256,0.0543376,-0.0522173,0.0206519,0.0017843,0.
 0477201,0.050809,0.0530329,0.0913168,-0.0749266,0.0739248,-0.0771289,-
 0.0527811,-0.0024363,0.003603,-0.073601,0.0079772,0.1054942,-0.0228235
 ,-0.0668578,-0.0277674,-0.0081862|Polar=85.5599199,-2.9245841,53.46401
 88,2.1780229,-0.1406081,44.2997411|Quadrupole=1.8819578,0.0412755,-1.9
 232333,-0.4600011,-0.2086702,-0.1044779|PG=C01 [X(C6H10)]|NImag=0||0.7
 2849323,-0.11239959,0.62036440,-0.00577261,-0.26802202,0.25046373,-0.2
 7904946,0.18569651,-0.07827020,0.65886212,0.19780392,-0.31719751,0.122
 80137,-0.11459165,0.66152332,-0.08126383,0.12195857,-0.10517200,0.0119
 6306,-0.24139454,0.25010556,-0.03493589,0.01660706,-0.00223886,-0.2376
 3460,-0.01450735,0.02513593,0.63821142,0.01999560,0.01067295,-0.003023
 82,0.01153398,-0.10459464,0.00575254,0.09806020,0.79141127,-0.00908783
 ,-0.00290172,0.00785441,0.01986040,0.01176170,-0.06963650,-0.04767086,
 0.00211329,0.14031738,0.00213789,-0.00649155,0.00140881,-0.03103269,-0
 .02577863,0.00066558,-0.24214310,-0.20205282,0.01140220,0.70733196,0.0
 0707330,-0.00448942,0.00058047,-0.01992074,0.00864811,0.00142901,-0.18
 976357,-0.40975395,0.00315630,0.09675073,0.77670495,-0.00180534,0.0014
 1364,-0.00019618,0.00556117,0.00201614,0.00585866,0.01015730,0.0030477
 2,-0.04970358,-0.07102153,0.03232978,0.11577344,-0.00010077,-0.0000802
 6,-0.00005399,0.00017741,0.00011688,0.00007124,0.00031614,0.00035981,-
 0.00038698,-0.00025947,-0.00046432,-0.00035417,0.84382837,0.00013296,-
 0.00001348,-0.00004124,-0.00011003,-0.00017297,0.00004479,-0.00028985,
 -0.00005530,0.00007845,0.00036601,0.00021612,0.00030508,-0.14746787,0.
 19369388,0.00020779,-0.00017989,-0.00010210,-0.00019078,-0.00004866,-0
 .00012682,-0.00015372,-0.00002742,0.00012677,0.00023804,0.00007306,0.0
 0001409,0.05538745,0.15257074,0.59031444,-0.00024609,0.00054955,0.0002
 6952,0.00031781,-0.00022113,0.00042783,0.00018153,-0.00009593,-0.00010
 251,-0.00006808,-0.00001301,0.00003847,-0.56352682,0.10163877,-0.04590
 520,0.84372195,0.00002690,0.00010563,0.00000459,-0.00004209,-0.0000062
 6,-0.00012180,-0.00003076,0.00004269,-0.00007092,0.00000505,-0.0001909
 8,-0.00005801,0.10172463,-0.07291473,-0.01242520,-0.14715876,0.1938932
 8,-0.00023043,0.00027606,0.00012925,0.00029020,0.00002223,0.00008615,0
 .00024132,-0.00008478,-0.00014556,-0.00033607,-0.00007896,-0.00019648,
 -0.04554213,-0.01243306,-0.11211333,0.05651675,0.15272885,0.59010672,-
 0.08885754,-0.07386073,0.04757403,0.01185647,0.01719514,-0.01033630,0.
 00049711,-0.00039358,-0.00058957,-0.00026412,0.00021616,-0.00034221,0.
 00001338,-0.00000196,-0.00000076,0.00000090,0.00001224,-0.00001682,0.0
 8413350,-0.07128528,-0.23738636,0.12031117,-0.00684480,-0.01607152,0.0
 1197264,-0.00347491,-0.00157555,-0.00352069,-0.00000864,0.00088752,-0.
 00046545,-0.00000414,0.00002690,0.00000616,-0.00001942,0.00000745,-0.0
 0003236,0.07725723,0.25211130,0.04500474,0.12192981,-0.10799714,0.0072
 3398,0.00903715,-0.00031739,-0.00199456,-0.00452060,-0.00532619,-0.000
 85446,0.00150345,-0.00004998,-0.00001898,-0.00002533,0.00003581,-0.000
 07255,-0.00011763,-0.00004284,-0.04893144,-0.13507396,0.10299426,-0.33
 338428,-0.02629888,0.04571061,-0.01624024,-0.00431817,0.00429530,0.000
 79857,0.00370968,-0.00028363,0.00027620,0.00013837,0.00005711,-0.00000
 763,0.00004971,0.00009950,-0.00001951,-0.00002430,-0.00016437,-0.00506
 255,0.00075417,0.00033058,0.35355680,-0.03012523,-0.05587596,0.0157089
 5,0.02434245,0.00496115,-0.00262772,0.00196566,0.00068011,0.00586596,0
 .00068700,-0.00087745,-0.00024377,0.00002437,-0.00001341,0.00003062,-0
 .00003564,-0.00003678,-0.00005276,-0.02334822,0.00089177,0.00325539,0.
 02629877,0.04992943,0.04799073,0.01528264,-0.04504776,-0.01254725,-0.0
 0132161,0.00542710,0.00162974,0.00766417,0.00838446,0.00104493,-0.0008
 9928,-0.00009791,0.00001406,0.00001536,0.00008192,-0.00004958,-0.00002
 240,-0.00015186,0.01317604,0.00036903,0.00068157,-0.04912579,-0.017677
 52,0.03711307,0.01021222,0.01936961,-0.01053220,-0.09479798,-0.0825370
 1,0.04787402,-0.01071494,-0.02815937,0.01315957,-0.00507384,0.00236658
 ,0.00123543,-0.00002671,0.00007709,-0.00000846,-0.00000579,0.00004117,
 -0.00004313,-0.00192568,0.00342604,-0.00076535,0.00106288,-0.00034290,
 -0.00058840,0.10101373,-0.01011027,-0.01670658,0.01198860,-0.07960702,
 -0.23737714,0.10225917,0.00010161,0.00084169,0.00020955,0.00042296,0.0
 0160567,0.00093146,-0.00001678,0.00008388,0.00003062,-0.00001195,0.000
 11639,-0.00015209,0.00342963,0.00061161,0.00493073,-0.00012831,-0.0003
 9723,-0.00329438,0.08647829,0.25058342,0.00274782,0.01146553,-0.000531
 02,0.04870542,0.10022188,-0.09323445,-0.00213197,0.00208300,0.00213264
 ,0.00137868,0.00056817,0.00076771,0.00000766,0.00001036,-0.00001478,-0
 .00002324,0.00005455,-0.00004992,-0.00036012,0.00592406,0.00942736,-0.
 00084982,-0.00384871,-0.00591937,-0.04907821,-0.11678037,0.08736538,-0
 .00479920,-0.00218711,0.00232874,-0.01340690,0.02986331,0.00095218,-0.
 11244862,0.11030611,0.01301178,0.01091553,-0.01897156,-0.00169139,0.00
 000091,0.00001084,0.00004232,-0.00005270,-0.00000832,-0.00006137,0.000
 29434,0.00028258,0.00036268,-0.00104415,0.00038027,-0.00162367,0.00091
 130,-0.00075001,-0.00027178,0.11981000,-0.00036751,0.00073774,-0.00082
 942,-0.00212799,0.00273875,0.00080554,0.10784510,-0.27008679,-0.016703
 67,0.01338561,-0.02358186,-0.00254481,0.00001736,0.00004134,-0.0000650
 6,0.00002108,0.00005349,0.00003778,-0.00015713,0.00000627,-0.00013651,
 -0.00008305,-0.00006669,-0.00011126,0.00059001,0.00078304,0.00011348,-
 0.11559332,0.29072876,0.00165312,-0.00047564,0.00134122,-0.00152276,-0
 .00204264,0.00281295,0.01485933,-0.01447256,-0.04238688,-0.00150541,-0
 .00122472,0.00557700,0.00002624,-0.00000812,-0.00008954,0.00003243,0.0
 0002902,0.00007287,0.00010554,0.00001702,0.00029031,-0.00013789,-0.000
 25704,0.00001008,-0.00051328,-0.00053370,-0.00010444,-0.01318455,0.019
 11818,0.02808448,-0.00020860,-0.00042355,-0.00023972,0.00020021,0.0000
 9184,-0.00101149,0.01260255,-0.01686279,-0.00225876,-0.10512703,0.1042
 5774,0.01758969,0.00002450,-0.00014422,-0.00004593,0.00005146,0.000007
 31,0.00009523,-0.00083447,-0.00014702,-0.00048189,0.00015262,0.0002123
 1,0.00016824,0.00030002,0.00021751,0.00003279,-0.00126977,-0.00322964,
 0.00144327,0.10154356,-0.00039388,0.00028670,0.00026018,0.00230153,0.0
 0098253,0.00061433,0.01217716,-0.02186402,-0.00302795,0.10090280,-0.28
 941946,-0.03224299,-0.00006296,0.00012423,0.00002493,0.00002867,0.0000
 3045,-0.00000858,-0.00019924,0.00033089,-0.00056088,-0.00001781,0.0003
 3978,-0.00008473,-0.00008544,0.00011206,0.00007728,-0.00337719,-0.0025
 6359,-0.00061134,-0.11012549,0.31000420,-0.00053995,-0.00177124,0.0005
 2993,-0.00363913,0.00151033,-0.00760644,0.00351005,0.00112175,0.004843
 16,0.01648861,-0.03417519,-0.03983991,-0.00001242,-0.00019374,-0.00002
 364,0.00007947,-0.00004747,0.00009048,-0.00051070,0.00042475,0.0001380
 2,0.00004310,0.00036026,0.00000581,0.00042656,0.00026086,0.00018736,0.
 00105625,0.00030262,0.01195604,-0.01787179,0.03528763,0.02773776,0.000
 34617,-0.00000563,0.00007438,0.00129387,-0.00317954,0.00173913,-0.0141
 2825,0.00386299,0.00245739,-0.33708304,0.01782509,0.04020382,-0.000002
 72,0.00002410,0.00008579,-0.00001461,-0.00002531,-0.00007438,0.0001681
 6,0.00002998,0.00006621,-0.00008090,-0.00002549,-0.00006529,-0.0009907
 6,-0.00007852,-0.00017878,0.00102635,-0.00025331,-0.00118677,-0.007298
 06,-0.00118434,0.00105244,0.35675404,-0.00014067,-0.00033040,0.0003655
 0,-0.00074218,-0.00346252,-0.00061185,-0.02912779,0.00438127,0.0031341
 5,0.02225199,-0.05977522,-0.00411913,-0.00000108,-0.00000453,0.0000047
 1,0.00000639,0.00003592,0.00000146,-0.00013193,0.00016943,-0.00043950,
 -0.00004910,0.00040418,0.00008385,-0.00109871,-0.00001298,0.00022285,0
 .00005994,0.00132968,0.00051540,0.02597440,0.00186870,-0.00341840,-0.0
 1699100,0.05543754,0.00113327,0.00109736,-0.00071688,0.00266369,-0.002
 24160,0.01206601,-0.00126022,0.00047909,0.00389131,0.04100770,-0.00345
 552,-0.03747036,0.00003873,-0.00011030,-0.00016227,-0.00000778,0.00003
 549,0.00012450,0.00022986,0.00002605,0.00016825,-0.00001651,-0.0004988
 5,-0.00051156,-0.00127935,-0.00004817,-0.00012959,-0.00090401,0.000000
 24,-0.00760096,0.00257239,0.00034218,0.00199622,-0.04420677,0.00428633
 ,0.02834630,0.00009543,-0.00011763,-0.00008395,-0.00013028,-0.00001120
 ,-0.00007556,-0.00013339,-0.00005065,0.00012919,0.00015449,0.00011630,
 0.00014987,-0.12254906,-0.01971749,-0.11444394,-0.01214072,-0.00628777
 ,-0.02966824,0.00000062,0.00000879,0.00001904,0.00003818,0.00001396,0.
 00003717,0.00000752,0.00002154,0.00000495,0.00002088,-0.00000927,-0.00
 002118,-0.00003340,0.00002660,-0.00003892,0.00000936,0.00000286,-0.000
 02525,0.12793517,-0.00002150,-0.00001363,0.00001255,0.00005187,0.00004
 057,0.00001064,0.00007711,0.00008131,-0.00005815,-0.00010741,-0.000090
 41,-0.00013780,-0.02093763,-0.04909122,-0.05167029,0.00391400,0.006054
 93,0.00552324,-0.00000175,-0.00000306,0.00001608,-0.00001606,0.0000054
 2,-0.00000662,-0.00000631,-0.00001666,0.00000716,-0.00000286,-0.000011
 03,0.00000239,0.00002085,-0.00001548,0.00003053,-0.00000058,0.00000142
 ,0.00002104,0.02120486,0.03847669,-0.00001808,-0.00006065,-0.00003765,
 0.00007028,0.00006472,-0.00003492,0.00011995,0.00016559,-0.00014278,-0
 .00020191,-0.00015798,-0.00025185,-0.11799150,-0.05083200,-0.26219853,
 0.00000309,-0.00121182,0.00152637,0.00000783,0.00000489,0.00001019,-0.
 00001041,0.00001115,0.00001400,0.00000220,0.00001559,0.00002393,-0.000
 00024,-0.00001030,0.00002306,0.00002167,-0.00007398,0.00009010,0.00001
 979,-0.00001965,0.00001805,0.13023541,0.05556381,0.27216486,-0.0000402
 4,0.00004701,0.00002375,-0.00020674,-0.00006394,-0.00001490,-0.0000958
 0,-0.00021561,0.00021321,0.00021045,0.00015938,0.00014825,-0.13235920,
 0.05839372,0.10764502,-0.01338080,0.01317371,0.02624042,-0.00000493,-0
 .00000534,-0.00001684,0.00003127,0.00000397,0.00001467,-0.00003256,-0.
 00001968,-0.00003767,0.00001403,0.00001805,-0.00003015,-0.00002989,0.0
 0010459,-0.00009866,-0.00006817,0.00003394,0.00011344,0.01001656,-0.00
 585547,-0.01201375,0.13921053,-0.00004190,-0.00001458,0.00001032,-0.00
 003750,0.00007496,-0.00008009,0.00014692,-0.00014203,-0.00005385,-0.00
 019421,0.00000425,-0.00016231,0.05980335,-0.08048259,-0.08836390,0.003
 12002,0.00252313,-0.00542350,0.00000591,-0.00001208,0.00002627,-0.0000
 1309,0.00000557,0.00000575,-0.00005976,-0.00003766,-0.00001578,-0.0000
 0129,-0.00007658,-0.00005358,0.00014826,-0.00017018,0.00024110,0.00000
 228,-0.00000105,0.00005017,0.00288870,0.00061393,-0.00305978,-0.067046
 95,0.07359240,0.00008413,0.00000788,-0.00006653,-0.00020180,-0.0001063
 7,0.00006462,-0.00025610,-0.00035069,-0.00019350,0.00032363,0.00033558
 ,-0.00009051,0.11205093,-0.08947776,-0.22400812,-0.00319108,0.00130121
 ,0.00669067,-0.00001373,0.00001894,-0.00000541,0.00001621,-0.00001277,
 -0.00000954,0.00006527,0.00003812,0.00000176,-0.00000970,0.00003098,0.
 00001204,-0.00002263,0.00003077,-0.00012572,-0.00000609,0.00001711,-0.
 00002606,0.01339045,-0.00874120,-0.01441141,-0.12078155,0.09714800,0.2
 2933054,0.00012228,-0.00013912,-0.00010422,-0.00012804,0.00001090,-0.0
 0011740,-0.00012567,-0.00002853,0.00008403,0.00011638,0.00008969,0.000
 12614,-0.01337095,0.01324816,0.02649357,-0.13287856,0.05867671,0.10717
 833,-0.00000443,0.00000711,0.00001631,0.00002311,0.00000518,0.00002013
 ,0.00001394,0.00002128,0.00000656,0.00001833,-0.00001647,-0.00002671,-
 0.00002778,0.00000425,-0.00003501,0.00002124,-0.00000275,-0.00004564,0
 .00102612,-0.00203513,0.00047132,-0.00425227,0.00320935,-0.00222183,0.
 13946493,0.00004041,-0.00008698,-0.00006780,-0.00004261,0.00006074,-0.
 00006782,0.00000313,0.00002614,0.00000347,-0.00004034,-0.00002657,-0.0
 0004772,0.00306195,0.00244980,-0.00553688,0.05989580,-0.07976522,-0.08
 775443,-0.00000557,0.00000236,0.00001988,-0.00000242,0.00001332,0.0000
 0841,0.00000463,0.00000316,0.00001308,0.00000752,-0.00001198,-0.000002
 71,0.00001619,-0.00001724,0.00001174,0.00000256,0.00000024,0.00001380,
 -0.00188906,-0.00720558,0.00299648,0.00326620,0.01138163,-0.00313465,-
 0.06746828,0.07265568,0.00018205,-0.00028449,-0.00017016,-0.00014934,0
 .00008548,-0.00024975,-0.00011345,0.00006364,0.00004177,0.00001478,0.0
 0004050,-0.00002793,-0.00319417,0.00117247,0.00634802,0.11074149,-0.08
 854845,-0.22110566,0.00000700,0.00001550,0.00003205,0.00001502,0.00001
 227,0.00004184,0.00002536,0.00004476,0.00003657,0.00002605,-0.00001770
 ,-0.00000236,-0.00002795,-0.00004466,0.00003439,0.00002830,-0.00001662
 ,-0.00001064,0.00087595,0.00290615,0.00039136,-0.00198138,-0.00322059,
 0.00253192,-0.12061793,0.09668274,0.22639111,0.00021486,-0.00026569,-0
 .00009408,-0.00008097,0.00012662,-0.00030479,-0.00024705,0.00003092,0.
 00006237,-0.00009154,0.00013984,-0.00005262,-0.01215738,-0.00620994,-0
 .02945069,-0.12193996,-0.02009042,-0.11442533,-0.00001076,0.00002367,0
 .00010252,-0.00010034,-0.00005645,-0.00009571,0.00004665,0.00002971,0.
 00004772,0.00000966,-0.00003950,0.00000877,-0.00004593,-0.00009926,0.0
 0009009,0.00004733,-0.00004430,-0.00001356,-0.00431745,0.00371602,-0.0
 0071565,0.00098775,-0.00193009,0.00077389,0.00998135,0.00314989,0.0141
 6822,0.12770378,-0.00018725,-0.00005251,-0.00005940,0.00014027,-0.0001
 4757,0.00005657,0.00021029,-0.00006515,0.00001407,-0.00009854,0.000138
 70,-0.00002183,0.00392668,0.00611209,0.00557646,-0.02161842,-0.0499494
 1,-0.05256910,-0.00001621,0.00000306,0.00015566,0.00000050,0.00003678,
 -0.00001143,-0.00006393,-0.00019267,-0.00011655,-0.00001892,-0.0000205
 5,0.00000005,-0.00001370,-0.00002958,0.00005447,-0.00000328,-0.0000416
 8,0.00000267,0.00379945,0.01117280,-0.00339606,-0.00199357,-0.00725912
 ,0.00289484,-0.00558235,0.00052049,-0.00889101,0.02151897,0.03977435,-
 0.00028558,0.00026415,-0.00028113,0.00017304,-0.00036557,-0.00004277,0
 .00016612,-0.00001093,-0.00005692,-0.00005356,-0.00002466,-0.00006622,
 -0.00004196,-0.00107571,0.00191809,-0.11875713,-0.05153003,-0.26502137
 ,0.00000136,0.00000226,-0.00003889,0.00002099,-0.00002547,-0.00002184,
 0.00001996,0.00009924,0.00004086,-0.00003330,0.00000990,0.00000412,0.0
 0003688,0.00001783,-0.00001355,-0.00000917,-0.00000621,0.00001769,-0.0
 0048499,-0.00347954,0.00281521,0.00057614,0.00295177,0.00030525,-0.011
 22