 Default is to use a total of   8 processors:
                                8 via shared-memory
                                1 via Linda
 Entering Link 1 = C:\G16W\l1.exe PID=     22980.
  
 Copyright (c) 1988-2019, Gaussian, Inc.  All Rights Reserved.
  
 This is part of the Gaussian(R) 16 program.  It is based on
 the Gaussian(R) 09 system (copyright 2009, Gaussian, Inc.),
 the Gaussian(R) 03 system (copyright 2003, Gaussian, Inc.),
 the Gaussian(R) 98 system (copyright 1998, Gaussian, Inc.),
 the Gaussian(R) 94 system (copyright 1995, Gaussian, Inc.),
 the Gaussian 92(TM) system (copyright 1992, Gaussian, Inc.),
 the Gaussian 90(TM) system (copyright 1990, Gaussian, Inc.),
 the Gaussian 88(TM) system (copyright 1988, Gaussian, Inc.),
 the Gaussian 86(TM) system (copyright 1986, Carnegie Mellon
 University), and the Gaussian 82(TM) system (copyright 1983,
 Carnegie Mellon University). Gaussian is a federally registered
 trademark of Gaussian, Inc.
  
 This software contains proprietary and confidential information,
 including trade secrets, belonging to Gaussian, Inc.
  
 This software is provided under written license and may be
 used, copied, transmitted, or stored only in accord with that
 written license.
  
 The following legend is applicable only to US Government
 contracts under FAR:
  
                    RESTRICTED RIGHTS LEGEND
  
 Use, reproduction and disclosure by the US Government is
 subject to restrictions as set forth in subparagraphs (a)
 and (c) of the Commercial Computer Software - Restricted
 Rights clause in FAR 52.227-19.
  
 Gaussian, Inc.
 340 Quinnipiac St., Bldg. 40, Wallingford CT 06492
  
  
 ---------------------------------------------------------------
 Warning -- This program may not be used in any manner that
 competes with the business of Gaussian, Inc. or will provide
 assistance to any competitor of Gaussian, Inc.  The licensee
 of this program is prohibited from giving any competitor of
 Gaussian, Inc. access to this program.  By using this program,
 the user acknowledges that Gaussian, Inc. is engaged in the
 business of creating and licensing software in the field of
 computational chemistry and represents and warrants to the
 licensee that it is not a competitor of Gaussian, Inc. and that
 it will not use this program in any manner prohibited above.
 ---------------------------------------------------------------
  

 Cite this work as:
 Gaussian 16, Revision C.01,
 M. J. Frisch, G. W. Trucks, H. B. Schlegel, G. E. Scuseria, 
 M. A. Robb, J. R. Cheeseman, G. Scalmani, V. Barone, 
 G. A. Petersson, H. Nakatsuji, X. Li, M. Caricato, A. V. Marenich, 
 J. Bloino, B. G. Janesko, R. Gomperts, B. Mennucci, H. P. Hratchian, 
 J. V. Ortiz, A. F. Izmaylov, J. L. Sonnenberg, D. Williams-Young, 
 F. Ding, F. Lipparini, F. Egidi, J. Goings, B. Peng, A. Petrone, 
 T. Henderson, D. Ranasinghe, V. G. Zakrzewski, J. Gao, N. Rega, 
 G. Zheng, W. Liang, M. Hada, M. Ehara, K. Toyota, R. Fukuda, 
 J. Hasegawa, M. Ishida, T. Nakajima, Y. Honda, O. Kitao, H. Nakai, 
 T. Vreven, K. Throssell, J. A. Montgomery, Jr., J. E. Peralta, 
 F. Ogliaro, M. J. Bearpark, J. J. Heyd, E. N. Brothers, K. N. Kudin, 
 V. N. Staroverov, T. A. Keith, R. Kobayashi, J. Normand, 
 K. Raghavachari, A. P. Rendell, J. C. Burant, S. S. Iyengar, 
 J. Tomasi, M. Cossi, J. M. Millam, M. Klene, C. Adamo, R. Cammi, 
 J. W. Ochterski, R. L. Martin, K. Morokuma, O. Farkas, 
 J. B. Foresman, and D. J. Fox, Gaussian, Inc., Wallingford CT, 2019.
 
 ******************************************
 Gaussian 16:  EM64W-G16RevC.01 30-May-2019
                12-Nov-2025 
 ******************************************
 %chk=C:\Users\al6323\OneDrive - Imperial College London\Desktop\TSR202511112\TS_
 guess_opt_TS(Berny)_IRS_DFT_product.chk
 Default route: MaxDisk=10GB
 ---------------------------------------------------------------
 # opt=(calcfc,tight) freq b3lyp/6-31g(d) nosymm scf=(xqc,tight)
 ---------------------------------------------------------------
 1/7=10,10=4,18=20,19=15,26=3,38=1/1,3;
 2/9=110,12=2,15=1,17=6,18=5,40=1/2;
 3/5=1,6=6,7=1,11=2,25=1,30=1,71=2,74=-5,140=1/1,2,3;
 4//1;
 5/5=2,8=3,13=1,32=2,38=5/2,8;
 8/6=4,10=90,11=11/1;
 11/6=1,8=1,9=11,15=111,16=1,31=1/1,2,10;
 10/6=1,13=1,31=1/2;
 6/7=2,8=2,9=2,10=2,28=1/1;
 7/10=1,25=1,30=1/1,2,3,16;
 1/7=10,10=4,18=20,19=15,26=3/3(2);
 2/9=110,15=1/2;
 99//99;
 2/9=110,15=1/2;
 3/5=1,6=6,7=1,11=2,25=1,30=1,71=1,74=-5/1,2,3;
 4/5=5,16=3,69=1/1;
 5/5=2,8=3,13=1,32=2,38=5/2,8;
 7/30=1/1,2,3,16;
 1/7=10,18=20,19=15,26=3/3(-5);
 2/9=110,15=1/2;
 6/7=2,8=2,9=2,10=2,19=2,28=1/1;
 99/9=1/99;
 ------------------------
 TS Benry DFT product opt
 ------------------------
 Symbolic Z-matrix:
 Charge =  0 Multiplicity = 1
 C                    -1.40379   0.27394  -0.26389 
 C                    -0.67863  -0.83115  -0.99139 
 C                     0.68007  -0.85617  -0.9619 
 C                     1.41713   0.23548  -0.22612 
 C                     0.76523   0.54916   1.14741 
 C                    -0.79177   0.49464   1.1412 
 H                    -1.3278    1.20902  -0.84147 
 H                    -2.47477   0.0586   -0.17572 
 H                    -1.25146  -1.59145  -1.52033 
 H                     1.24682  -1.63576  -1.46893 
 H                     1.40643   1.15009  -0.83969 
 H                     2.47395  -0.01961  -0.08799 
 H                     1.11155   1.53365   1.48359 
 H                     1.14311  -0.17452   1.8786 
 H                    -1.20792   1.41026   1.57807 
 H                    -1.12371  -0.33139   1.78072 
 

 GradGradGradGradGradGradGradGradGradGradGradGradGradGradGradGradGradGrad
 Berny optimization.
 Initialization pass.
                           ----------------------------
                           !    Initial Parameters    !
                           ! (Angstroms and Degrees)  !
 --------------------------                            --------------------------
 ! Name  Definition              Value          Derivative Info.                !
 --------------------------------------------------------------------------------
 ! R1    R(1,2)                  1.5088         calculate D2E/DX2 analytically  !
 ! R2    R(1,6)                  1.5484         calculate D2E/DX2 analytically  !
 ! R3    R(1,7)                  1.1017         calculate D2E/DX2 analytically  !
 ! R4    R(1,8)                  1.096          calculate D2E/DX2 analytically  !
 ! R5    R(2,3)                  1.3593         calculate D2E/DX2 analytically  !
 ! R6    R(2,9)                  1.089          calculate D2E/DX2 analytically  !
 ! R7    R(3,4)                  1.5088         calculate D2E/DX2 analytically  !
 ! R8    R(3,10)                 1.0891         calculate D2E/DX2 analytically  !
 ! R9    R(4,5)                  1.5524         calculate D2E/DX2 analytically  !
 ! R10   R(4,11)                 1.1014         calculate D2E/DX2 analytically  !
 ! R11   R(4,12)                 1.0959         calculate D2E/DX2 analytically  !
 ! R12   R(5,6)                  1.558          calculate D2E/DX2 analytically  !
 ! R13   R(5,13)                 1.0964         calculate D2E/DX2 analytically  !
 ! R14   R(5,14)                 1.096          calculate D2E/DX2 analytically  !
 ! R15   R(6,15)                 1.0965         calculate D2E/DX2 analytically  !
 ! R16   R(6,16)                 1.0961         calculate D2E/DX2 analytically  !
 ! A1    A(2,1,6)              110.6087         calculate D2E/DX2 analytically  !
 ! A2    A(2,1,7)              109.617          calculate D2E/DX2 analytically  !
 ! A3    A(2,1,8)              111.3796         calculate D2E/DX2 analytically  !
 ! A4    A(6,1,7)              109.1175         calculate D2E/DX2 analytically  !
 ! A5    A(6,1,8)              109.9533         calculate D2E/DX2 analytically  !
 ! A6    A(7,1,8)              106.0419         calculate D2E/DX2 analytically  !
 ! A7    A(1,2,3)              118.9118         calculate D2E/DX2 analytically  !
 ! A8    A(1,2,9)              119.5214         calculate D2E/DX2 analytically  !
 ! A9    A(3,2,9)              121.5655         calculate D2E/DX2 analytically  !
 ! A10   A(2,3,4)              119.0509         calculate D2E/DX2 analytically  !
 ! A11   A(2,3,10)             121.5517         calculate D2E/DX2 analytically  !
 ! A12   A(4,3,10)             119.3907         calculate D2E/DX2 analytically  !
 ! A13   A(3,4,5)              111.872          calculate D2E/DX2 analytically  !
 ! A14   A(3,4,11)             108.93           calculate D2E/DX2 analytically  !
 ! A15   A(3,4,12)             111.3553         calculate D2E/DX2 analytically  !
 ! A16   A(5,4,11)             108.7249         calculate D2E/DX2 analytically  !
 ! A17   A(5,4,12)             109.9052         calculate D2E/DX2 analytically  !
 ! A18   A(11,4,12)            105.8353         calculate D2E/DX2 analytically  !
 ! A19   A(4,5,6)              114.1469         calculate D2E/DX2 analytically  !
 ! A20   A(4,5,13)             108.6674         calculate D2E/DX2 analytically  !
 ! A21   A(4,5,14)             108.1852         calculate D2E/DX2 analytically  !
 ! A22   A(6,5,13)             110.3831         calculate D2E/DX2 analytically  !
 ! A23   A(6,5,14)             108.9124         calculate D2E/DX2 analytically  !
 ! A24   A(13,5,14)            106.2263         calculate D2E/DX2 analytically  !
 ! A25   A(1,6,5)              113.8041         calculate D2E/DX2 analytically  !
 ! A26   A(1,6,15)             109.3019         calculate D2E/DX2 analytically  !
 ! A27   A(1,6,16)             107.5973         calculate D2E/DX2 analytically  !
 ! A28   A(5,6,15)             110.3938         calculate D2E/DX2 analytically  !
 ! A29   A(5,6,16)             109.0678         calculate D2E/DX2 analytically  !
 ! A30   A(15,6,16)            106.373          calculate D2E/DX2 analytically  !
 ! D1    D(6,1,2,3)            -44.7063         calculate D2E/DX2 analytically  !
 ! D2    D(6,1,2,9)            134.8799         calculate D2E/DX2 analytically  !
 ! D3    D(7,1,2,3)             75.6575         calculate D2E/DX2 analytically  !
 ! D4    D(7,1,2,9)           -104.7563         calculate D2E/DX2 analytically  !
 ! D5    D(8,1,2,3)           -167.3046         calculate D2E/DX2 analytically  !
 ! D6    D(8,1,2,9)             12.2816         calculate D2E/DX2 analytically  !
 ! D7    D(2,1,6,5)             46.0037         calculate D2E/DX2 analytically  !
 ! D8    D(2,1,6,15)           169.9251         calculate D2E/DX2 analytically  !
 ! D9    D(2,1,6,16)           -74.9607         calculate D2E/DX2 analytically  !
 ! D10   D(7,1,6,5)            -74.658          calculate D2E/DX2 analytically  !
 ! D11   D(7,1,6,15)            49.2633         calculate D2E/DX2 analytically  !
 ! D12   D(7,1,6,16)           164.3775         calculate D2E/DX2 analytically  !
 ! D13   D(8,1,6,5)            169.4301         calculate D2E/DX2 analytically  !
 ! D14   D(8,1,6,15)           -66.6485         calculate D2E/DX2 analytically  !
 ! D15   D(8,1,6,16)            48.4657         calculate D2E/DX2 analytically  !
 ! D16   D(1,2,3,4)             -1.1715         calculate D2E/DX2 analytically  !
 ! D17   D(1,2,3,10)           179.7806         calculate D2E/DX2 analytically  !
 ! D18   D(9,2,3,4)            179.2511         calculate D2E/DX2 analytically  !
 ! D19   D(9,2,3,10)             0.2031         calculate D2E/DX2 analytically  !
 ! D20   D(2,3,4,5)             43.8359         calculate D2E/DX2 analytically  !
 ! D21   D(2,3,4,11)           -76.3879         calculate D2E/DX2 analytically  !
 ! D22   D(2,3,4,12)           167.2631         calculate D2E/DX2 analytically  !
 ! D23   D(10,3,4,5)          -137.0952         calculate D2E/DX2 analytically  !
 ! D24   D(10,3,4,11)          102.6809         calculate D2E/DX2 analytically  !
 ! D25   D(10,3,4,12)          -13.6681         calculate D2E/DX2 analytically  !
 ! D26   D(3,4,5,6)            -37.9367         calculate D2E/DX2 analytically  !
 ! D27   D(3,4,5,13)          -161.6026         calculate D2E/DX2 analytically  !
 ! D28   D(3,4,5,14)            83.4722         calculate D2E/DX2 analytically  !
 ! D29   D(11,4,5,6)            82.4068         calculate D2E/DX2 analytically  !
 ! D30   D(11,4,5,13)          -41.259          calculate D2E/DX2 analytically  !
 ! D31   D(11,4,5,14)         -156.1843         calculate D2E/DX2 analytically  !
 ! D32   D(12,4,5,6)          -162.1783         calculate D2E/DX2 analytically  !
 ! D33   D(12,4,5,13)           74.1558         calculate D2E/DX2 analytically  !
 ! D34   D(12,4,5,14)          -40.7694         calculate D2E/DX2 analytically  !
 ! D35   D(4,5,6,1)             -5.652          calculate D2E/DX2 analytically  !
 ! D36   D(4,5,6,15)          -128.9808         calculate D2E/DX2 analytically  !
 ! D37   D(4,5,6,16)           114.4869         calculate D2E/DX2 analytically  !
 ! D38   D(13,5,6,1)           117.084          calculate D2E/DX2 analytically  !
 ! D39   D(13,5,6,15)           -6.2447         calculate D2E/DX2 analytically  !
 ! D40   D(13,5,6,16)         -122.7771         calculate D2E/DX2 analytically  !
 ! D41   D(14,5,6,1)          -126.6581         calculate D2E/DX2 analytically  !
 ! D42   D(14,5,6,15)          110.0131         calculate D2E/DX2 analytically  !
 ! D43   D(14,5,6,16)           -6.5192         calculate D2E/DX2 analytically  !
 --------------------------------------------------------------------------------
 Trust Radius=3.00D-01 FncErr=1.00D-07 GrdErr=1.00D-06 EigMax=2.50D+02 EigMin=1.00D-04
 Number of steps in this run=     99 maximum allowed number of steps=    100.
 GradGradGradGradGradGradGradGradGradGradGradGradGradGradGradGradGradGrad

                          Input orientation:                          
 ---------------------------------------------------------------------
 Center     Atomic      Atomic             Coordinates (Angstroms)
 Number     Number       Type             X           Y           Z
 ---------------------------------------------------------------------
      1          6           0       -1.403786    0.273943   -0.263886
      2          6           0       -0.678627   -0.831146   -0.991389
      3          6           0        0.680073   -0.856166   -0.961904
      4          6           0        1.417134    0.235484   -0.226122
      5          6           0        0.765234    0.549155    1.147405
      6          6           0       -0.791773    0.494640    1.141202
      7          1           0       -1.327804    1.209023   -0.841471
      8          1           0       -2.474771    0.058596   -0.175724
      9          1           0       -1.251456   -1.591454   -1.520327
     10          1           0        1.246817   -1.635756   -1.468933
     11          1           0        1.406434    1.150091   -0.839693
     12          1           0        2.473950   -0.019606   -0.087991
     13          1           0        1.111548    1.533650    1.483589
     14          1           0        1.143105   -0.174522    1.878596
     15          1           0       -1.207918    1.410257    1.578068
     16          1           0       -1.123712   -0.331393    1.780716
 ---------------------------------------------------------------------
                    Distance matrix (angstroms):
                    1          2          3          4          5
     1  C    0.000000
     2  C    1.508753   0.000000
     3  C    2.471203   1.359250   0.000000
     4  C    2.821435   2.472963   1.508752   0.000000
     5  C    2.602332   2.926501   2.536013   1.552398   0.000000
     6  C    1.548399   2.513653   2.900700   2.610749   1.557974
     7  H    1.101705   2.146205   2.882895   2.976763   2.961733
     8  H    1.095972   2.164043   3.377560   3.896249   3.533971
     9  H    2.254230   1.089025   2.140861   3.483395   3.970647
    10  H    3.482066   2.140743   1.089053   2.252804   3.442526
    11  H    2.999422   2.880242   2.137196   1.101404   2.172745
    12  H    3.892807   3.378382   2.163689   1.095906   2.183896
    13  H    3.311712   3.862965   3.446422   2.168347   1.096441
    14  H    3.358274   3.462178   2.957613   2.161720   1.095963
    15  H    2.173101   3.450528   3.892639   3.395010   2.195517
    16  H    2.150644   2.851739   3.324303   3.287042   2.178202
                    6          7          8          9         10
     6  C    0.000000
     7  H    2.174549   0.000000
     8  H    2.181034   1.755629   0.000000
     9  H    3.412745   2.882594   2.455020   0.000000
    10  H    3.937923   3.887821   4.288757   2.499194   0.000000
    11  H    3.030788   2.734874   4.086071   3.878622   2.860483
    12  H    3.527083   4.065784   4.950116   4.289631   2.454546
    13  H    2.195314   3.385517   4.217913   4.936959   4.333684
    14  H    2.176070   3.926621   4.166966   4.392526   3.654026
    15  H    1.096532   2.430850   2.551017   4.314187   4.958642
    16  H    1.096126   3.048015   2.409379   3.535669   4.228591
                   11         12         13         14         15
    11  H    0.000000
    12  H    1.752951   0.000000
    13  H    2.373122   2.595882   0.000000
    14  H    3.035298   2.379624   1.753534   0.000000
    15  H    3.570447   4.286772   2.324666   2.851167   0.000000
    16  H    3.932299   4.066011   2.926270   2.274346   1.755421
                   16
    16  H    0.000000
 Symmetry turned off by external request.
 Stoichiometry    C6H10
 Framework group  C1[X(C6H10)]
 Deg. of freedom    42
 Full point group                 C1      NOp   1
 Rotational constants (GHZ):           4.5760456           4.5489700           2.5740408
 Standard basis: 6-31G(d) (6D, 7F)
   110 basis functions,   208 primitive gaussians,   110 cartesian basis functions
    23 alpha electrons       23 beta electrons
       nuclear repulsion energy       235.4175091886 Hartrees.
 NAtoms=   16 NActive=   16 NUniq=   16 SFac= 1.00D+00 NAtFMM=   60 NAOKFM=F Big=F
 Integral buffers will be    131072 words long.
 Raffenetti 2 integral format.
 Two-electron integral symmetry is turned off.
 One-electron integrals computed using PRISM.
 NBasis=   110 RedAO= T EigKep=  2.13D-03  NBF=   110
 NBsUse=   110 1.00D-06 EigRej= -1.00D+00 NBFU=   110
 ExpMin= 1.61D-01 ExpMax= 3.05D+03 ExpMxC= 4.57D+02 IAcc=3 IRadAn=         5 AccDes= 0.00D+00
 Harris functional with IExCor=  402 and IRadAn=       5 diagonalized for initial guess.
 HarFok:  IExCor=  402 AccDes= 0.00D+00 IRadAn=         5 IDoV= 1 UseB2=F ITyADJ=14
 ICtDFT=  3500011 ScaDFX=  1.000000  1.000000  1.000000  1.000000
 FoFCou: FMM=F IPFlag=           0 FMFlag=      100000 FMFlg1=           0
         NFxFlg=           0 DoJE=T BraDBF=F KetDBF=T FulRan=T
         wScrn=  0.000000 ICntrl=       500 IOpCl=  0 I1Cent=   200000004 NGrid=           0
         NMat0=    1 NMatS0=      1 NMatT0=    0 NMatD0=    1 NMtDS0=    0 NMtDT0=    0
 Symmetry not used in FoFCou.
 Requested convergence on RMS density matrix=1.00D-08 within  32 cycles.
 Requested convergence on MAX density matrix=1.00D-06.
 Requested convergence on             energy=1.00D-06.
 No special actions if energy rises.
 Integral accuracy reduced to 1.0D-05 until final iterations.
 Initial convergence to 1.0D-05 achieved.  Increase integral accuracy.
 SCF Done:  E(RB3LYP) =  -234.638609909     A.U. after   12 cycles
            NFock= 12  Conv=0.52D-08     -V/T= 2.0106
 QCSCF skips out because SCF is already converged.
 DoSCS=F DFT=T ScalE2(SS,OS)=  1.000000  1.000000
 Range of M.O.s used for correlation:     1   110
 NBasis=   110 NAE=    23 NBE=    23 NFC=     0 NFV=     0
 NROrb=    110 NOA=    23 NOB=    23 NVA=    87 NVB=    87
 Symmetrizing basis deriv contribution to polar:
 IMax=3 JMax=2 DiffMx= 0.00D+00
 G2DrvN: will do    17 centers at a time, making    1 passes.
 Calling FoFCou, ICntrl=  3107 FMM=F I1Cent=   0 AccDes= 0.00D+00.
 End of G2Drv F.D. properties file   721 does not exist.
 End of G2Drv F.D. properties file   722 does not exist.
 End of G2Drv F.D. properties file   788 does not exist.
          IDoAtm=1111111111111111
          Differentiating once with respect to nuclear coordinates.
 Keep R1 ints in memory in canonical form, NReq=26109346.
          There are    51 degrees of freedom in the 1st order CPHF.  IDoFFX=6 NUNeed=     0.
     45 vectors produced by pass  0 Test12= 3.92D-15 1.96D-09 XBig12= 7.59D-02 8.12D-02.
 AX will form    45 AO Fock derivatives at one time.
     45 vectors produced by pass  1 Test12= 3.92D-15 1.96D-09 XBig12= 1.15D-02 3.24D-02.
     45 vectors produced by pass  2 Test12= 3.92D-15 1.96D-09 XBig12= 8.65D-05 1.34D-03.
     45 vectors produced by pass  3 Test12= 3.92D-15 1.96D-09 XBig12= 1.71D-07 5.69D-05.
     45 vectors produced by pass  4 Test12= 3.92D-15 1.96D-09 XBig12= 1.33D-10 1.48D-06.
     19 vectors produced by pass  5 Test12= 3.92D-15 1.96D-09 XBig12= 8.54D-14 4.53D-08.
 InvSVY:  IOpt=1 It=  1 EMax= 4.16D-16
 Solved reduced A of dimension   244 with    51 vectors.
 End of Minotr F.D. properties file   721 does not exist.
 End of Minotr F.D. properties file   722 does not exist.
 End of Minotr F.D. properties file   788 does not exist.

 **********************************************************************

            Population analysis using the SCF Density.

 **********************************************************************

 Alpha  occ. eigenvalues --  -10.18016 -10.17990 -10.17802 -10.17766 -10.17599
 Alpha  occ. eigenvalues --  -10.17521  -0.81963  -0.73095  -0.72716  -0.61241
 Alpha  occ. eigenvalues --   -0.58763  -0.49672  -0.48512  -0.46441  -0.39741
 Alpha  occ. eigenvalues --   -0.39322  -0.38881  -0.37296  -0.36970  -0.31819
 Alpha  occ. eigenvalues --   -0.31205  -0.29812  -0.23022
 Alpha virt. eigenvalues --    0.02457   0.08800   0.11509   0.13130   0.14820
 Alpha virt. eigenvalues --    0.14986   0.16770   0.18677   0.18985   0.20777
 Alpha virt. eigenvalues --    0.21429   0.23344   0.24719   0.25080   0.30836
 Alpha virt. eigenvalues --    0.36611   0.41278   0.50475   0.51611   0.54874
 Alpha virt. eigenvalues --    0.56727   0.58966   0.61281   0.62281   0.63275
 Alpha virt. eigenvalues --    0.64448   0.65749   0.69519   0.70948   0.71963
 Alpha virt. eigenvalues --    0.77872   0.81046   0.84524   0.85724   0.85775
 Alpha virt. eigenvalues --    0.86455   0.87899   0.88883   0.92007   0.93046
 Alpha virt. eigenvalues --    0.93670   0.94538   0.97783   0.99114   1.10709
 Alpha virt. eigenvalues --    1.14043   1.16712   1.35359   1.36936   1.39661
 Alpha virt. eigenvalues --    1.49867   1.52746   1.60334   1.65381   1.72832
 Alpha virt. eigenvalues --    1.73307   1.83025   1.86853   1.88721   1.89358
 Alpha virt. eigenvalues --    1.91756   1.96981   1.98740   2.05948   2.11732
 Alpha virt. eigenvalues --    2.16900   2.18667   2.20504   2.29674   2.30594
 Alpha virt. eigenvalues --    2.36912   2.37867   2.42546   2.47250   2.50959
 Alpha virt. eigenvalues --    2.56423   2.63384   2.65678   2.72292   2.86834
 Alpha virt. eigenvalues --    2.96853   4.10558   4.19529   4.24569   4.40017
 Alpha virt. eigenvalues --    4.45809   4.63782
          Condensed to atoms (all electrons):
               1          2          3          4          5          6
     1  C    5.023100   0.385758  -0.046153  -0.020776  -0.040725   0.375742
     2  C    0.385758   4.886080   0.686872  -0.044119  -0.020684  -0.040008
     3  C   -0.046153   0.686872   4.882404   0.387635  -0.038385  -0.018865
     4  C   -0.020776  -0.044119   0.387635   5.023202   0.370232  -0.041648
     5  C   -0.040725  -0.020684  -0.038385   0.370232   5.012034   0.369772
     6  C    0.375742  -0.040008  -0.018865  -0.041648   0.369772   5.006517
     7  H    0.367767  -0.035765  -0.010383   0.002907  -0.004699  -0.039483
     8  H    0.368890  -0.030269   0.004821   0.000268   0.004529  -0.030089
     9  H   -0.052375   0.366601  -0.041403   0.005839  -0.000037   0.003647
    10  H    0.005929  -0.041704   0.366219  -0.052338   0.003822  -0.000086
    11  H    0.002947  -0.010401  -0.037353   0.370317  -0.039282  -0.003536
    12  H    0.000283   0.004751  -0.029684   0.368638  -0.030420   0.004372
    13  H    0.001592   0.000664   0.004292  -0.032469   0.365342  -0.034580
    14  H    0.002676   0.001438  -0.002002  -0.037115   0.377212  -0.034492
    15  H   -0.032434   0.004732   0.000682   0.002681  -0.034424   0.364540
    16  H   -0.039277  -0.002460   0.001940   0.001748  -0.035362   0.377177
               7          8          9         10         11         12
     1  C    0.367767   0.368890  -0.052375   0.005929   0.002947   0.000283
     2  C   -0.035765  -0.030269   0.366601  -0.041704  -0.010401   0.004751
     3  C   -0.010383   0.004821  -0.041403   0.366219  -0.037353  -0.029684
     4  C    0.002907   0.000268   0.005839  -0.052338   0.370317   0.368638
     5  C   -0.004699   0.004529  -0.000037   0.003822  -0.039282  -0.030420
     6  C   -0.039483  -0.030089   0.003647  -0.000086  -0.003536   0.004372
     7  H    0.606038  -0.040198   0.003685  -0.000164   0.003430  -0.000099
     8  H   -0.040198   0.600207  -0.005630  -0.000136  -0.000097   0.000000
     9  H    0.003685  -0.005630   0.604587  -0.007509  -0.000145  -0.000139
    10  H   -0.000164  -0.000136  -0.007509   0.605237   0.003606  -0.005487
    11  H    0.003430  -0.000097  -0.000145   0.003606   0.604303  -0.040445
    12  H   -0.000099   0.000000  -0.000139  -0.005487  -0.040445   0.599942
    13  H    0.001064  -0.000142   0.000012  -0.000151  -0.006574   0.000658
    14  H   -0.000004  -0.000167   0.000001   0.000127   0.005660  -0.007665
    15  H   -0.005072  -0.000517  -0.000152   0.000011   0.000564  -0.000135
    16  H    0.005924  -0.006520   0.000278  -0.000026  -0.000021  -0.000164
              13         14         15         16
     1  C    0.001592   0.002676  -0.032434  -0.039277
     2  C    0.000664   0.001438   0.004732  -0.002460
     3  C    0.004292  -0.002002   0.000682   0.001940
     4  C   -0.032469  -0.037115   0.002681   0.001748
     5  C    0.365342   0.377212  -0.034424  -0.035362
     6  C   -0.034580  -0.034492   0.364540   0.377177
     7  H    0.001064  -0.000004  -0.005072   0.005924
     8  H   -0.000142  -0.000167  -0.000517  -0.006520
     9  H    0.000012   0.000001  -0.000152   0.000278
    10  H   -0.000151   0.000127   0.000011  -0.000026
    11  H   -0.006574   0.005660   0.000564  -0.000021
    12  H    0.000658  -0.007665  -0.000135  -0.000164
    13  H    0.612951  -0.038837  -0.009525   0.004991
    14  H   -0.038837   0.599959   0.004419  -0.010627
    15  H   -0.009525   0.004419   0.612670  -0.038548
    16  H    0.004991  -0.010627  -0.038548   0.601731
 Mulliken charges:
               1
     1  C   -0.302943
     2  C   -0.111484
     3  C   -0.110638
     4  C   -0.305002
     5  C   -0.258925
     6  C   -0.258981
     7  H    0.145054
     8  H    0.135053
     9  H    0.122739
    10  H    0.122651
    11  H    0.147027
    12  H    0.135594
    13  H    0.130713
    14  H    0.139418
    15  H    0.130508
    16  H    0.139216
 Sum of Mulliken charges =   0.00000
 Mulliken charges with hydrogens summed into heavy atoms:
               1
     1  C   -0.022836
     2  C    0.011255
     3  C    0.012013
     4  C   -0.022381
     5  C    0.011206
     6  C    0.010743
 APT charges:
               1
     1  C   -0.868393
     2  C   -0.512483
     3  C   -0.517324
     4  C   -0.875271
     5  C   -0.874203
     6  C   -0.867058
     7  H    0.367380
     8  H    0.494444
     9  H    0.519771
    10  H    0.518304
    11  H    0.375085
    12  H    0.493447
    13  H    0.457320
    14  H    0.420227
    15  H    0.466495
    16  H    0.402261
 Sum of APT charges =   0.00000
 APT charges with hydrogens summed into heavy atoms:
               1
     1  C   -0.006570
     2  C    0.007287
     3  C    0.000980
     4  C   -0.006739
     5  C    0.003344
     6  C    0.001698
 Electronic spatial extent (au):  <R**2>=            553.2678
 Charge=              0.0000 electrons
 Dipole moment (field-independent basis, Debye):
    X=              0.0098    Y=              0.1988    Z=              0.1603  Tot=              0.2556
 Quadrupole moment (field-independent basis, Debye-Ang):
   XX=            -36.6912   YY=            -37.6646   ZZ=            -38.9683
   XY=             -0.0273   XZ=              0.0519   YZ=              0.5210
 Traceless Quadrupole moment (field-independent basis, Debye-Ang):
   XX=              1.0835   YY=              0.1101   ZZ=             -1.1936
   XY=             -0.0273   XZ=              0.0519   YZ=              0.5210
 Octapole moment (field-independent basis, Debye-Ang**2):
  XXX=              0.1475  YYY=             -0.5868  ZZZ=              0.3208  XYY=              0.1453
  XXY=             -2.6091  XXZ=             -1.6447  XZZ=              0.0324  YZZ=             -2.1224
  YYZ=             -2.3582  XYZ=             -0.1293
 Hexadecapole moment (field-independent basis, Debye-Ang**3):
 XXXX=           -330.1048 YYYY=           -158.5924 ZZZZ=           -270.0025 XXXY=              0.4555
 XXXZ=             -0.5654 YYYX=              0.7207 YYYZ=            -51.9541 ZZZX=             -0.5793
 ZZZY=            -56.9197 XXYY=            -80.7836 XXZZ=            -99.4857 YYZZ=            -65.0399
 XXYZ=            -16.6090 YYXZ=             -0.5537 ZZXY=              0.1917
 N-N= 2.354175091886D+02 E-N=-1.013042708886D+03  KE= 2.321835993118D+02
  Exact polarizability:       0.000       0.000       0.000       0.000       0.000       0.000
 Approx polarizability:     103.812      -0.615      76.319       0.789       6.534      69.551
 Calling FoFJK, ICntrl=    100127 FMM=F ISym2X=0 I1Cent= 0 IOpClX= 0 NMat=1 NMatS=1 NMatT=0.
 -------------------------------------------------------------------
 Center     Atomic                   Forces (Hartrees/Bohr)
 Number     Number              X              Y              Z
 -------------------------------------------------------------------
      1        6           0.001534146   -0.000363144   -0.000032961
      2        6           0.022794368   -0.000402518    0.000401211
      3        6          -0.022753437    0.000406681   -0.000554023
      4        6          -0.001599612   -0.000359893   -0.000129201
      5        6          -0.000866396    0.000004024   -0.000085432
      6        6           0.000882944   -0.000051287   -0.000113355
      7        1           0.000012785    0.000088674   -0.000095800
      8        1           0.000061981   -0.000077439    0.000165765
      9        1           0.001124312    0.000236310    0.000143733
     10        1          -0.001117396    0.000274039    0.000085166
     11        1          -0.000006098    0.000093679   -0.000115265
     12        1          -0.000077165   -0.000083492    0.000169737
     13        1          -0.000043517   -0.000006143    0.000084729
     14        1          -0.000189898    0.000113160    0.000003381
     15        1           0.000080866    0.000002067    0.000096938
     16        1           0.000162116    0.000125281   -0.000024624
 -------------------------------------------------------------------
 Cartesian Forces:  Max     0.022794368 RMS     0.004672054
 FormGI is forming the generalized inverse of G from B-inverse, IUseBI=4.

 GradGradGradGradGradGradGradGradGradGradGradGradGradGradGradGradGradGrad
 Berny optimization.
 Internal  Forces:  Max     0.023365039 RMS     0.002586515
 Search for a local minimum.
 Step number   1 out of a maximum of   99
 All quantities printed in internal units (Hartrees-Bohrs-Radians)
 Mixed Optimization -- RFO/linear search
 Second derivative matrix not updated -- analytic derivatives used.
 ITU=  0
     Eigenvalues ---   -0.00002   0.00293   0.00970   0.01329   0.01637
     Eigenvalues ---    0.03100   0.03117   0.03898   0.04136   0.04254
     Eigenvalues ---    0.04386   0.04989   0.05399   0.06909   0.07108
     Eigenvalues ---    0.07664   0.07928   0.08336   0.10112   0.10460
     Eigenvalues ---    0.10688   0.11473   0.11978   0.18398   0.19837
     Eigenvalues ---    0.20397   0.24291   0.25326   0.26063   0.28497
     Eigenvalues ---    0.29727   0.32165   0.32433   0.32834   0.33235
     Eigenvalues ---    0.33629   0.33745   0.33850   0.34165   0.35496
     Eigenvalues ---    0.35554   0.51989
 RFO step:  Lambda=-1.14534798D-03 EMin=-1.95592900D-05
 Linear search not attempted -- first point.
 Iteration  1 RMS(Cart)=  0.00724861 RMS(Int)=  0.00001276
 Iteration  2 RMS(Cart)=  0.00001605 RMS(Int)=  0.00000489
 Iteration  3 RMS(Cart)=  0.00000000 RMS(Int)=  0.00000489
 Variable       Old X    -DE/DX   Delta X   Delta X   Delta X     New X
                                 (Linear)    (Quad)   (Total)
    R1        2.85113   0.00008   0.00000   0.00032   0.00032   2.85145
    R2        2.92605  -0.00094   0.00000  -0.00196  -0.00196   2.92409
    R3        2.08192   0.00013   0.00000   0.00022   0.00022   2.08214
    R4        2.07109  -0.00003   0.00000  -0.00003  -0.00003   2.07106
    R5        2.56861  -0.02337   0.00000  -0.04507  -0.04507   2.52354
    R6        2.05796  -0.00083   0.00000  -0.00142  -0.00142   2.05654
    R7        2.85113   0.00003   0.00000   0.00023   0.00022   2.85135
    R8        2.05801  -0.00082   0.00000  -0.00140  -0.00140   2.05662
    R9        2.93361  -0.00085   0.00000  -0.00137  -0.00137   2.93224
   R10        2.08135   0.00014   0.00000   0.00022   0.00022   2.08157
   R11        2.07096  -0.00003   0.00000  -0.00004  -0.00004   2.07093
   R12        2.94414  -0.00329   0.00000  -0.00603  -0.00603   2.93811
   R13        2.07197   0.00001   0.00000  -0.00001  -0.00001   2.07196
   R14        2.07107  -0.00014   0.00000  -0.00024  -0.00024   2.07083
   R15        2.07215   0.00001   0.00000   0.00001   0.00001   2.07216
   R16        2.07138  -0.00016   0.00000  -0.00026  -0.00026   2.07112
    A1        1.93049   0.00072   0.00000   0.00149   0.00148   1.93197
    A2        1.91318  -0.00057   0.00000  -0.00082  -0.00082   1.91236
    A3        1.94394   0.00015   0.00000  -0.00020  -0.00020   1.94374
    A4        1.90446   0.00030   0.00000   0.00106   0.00106   1.90552
    A5        1.91905  -0.00078   0.00000  -0.00172  -0.00171   1.91733
    A6        1.85078   0.00015   0.00000   0.00015   0.00015   1.85093
    A7        2.07540   0.00151   0.00000   0.00390   0.00391   2.07931
    A8        2.08604   0.00008   0.00000  -0.00070  -0.00070   2.08534
    A9        2.12172  -0.00158   0.00000  -0.00319  -0.00320   2.11852
   A10        2.07783   0.00141   0.00000   0.00390   0.00389   2.08172
   A11        2.12148  -0.00155   0.00000  -0.00315  -0.00315   2.11833
   A12        2.08376   0.00013   0.00000  -0.00079  -0.00079   2.08297
   A13        1.95254   0.00087   0.00000   0.00274   0.00274   1.95527
   A14        1.90119  -0.00068   0.00000  -0.00161  -0.00161   1.89958
   A15        1.94352   0.00016   0.00000  -0.00023  -0.00023   1.94329
   A16        1.89761   0.00028   0.00000   0.00073   0.00073   1.89833
   A17        1.91821  -0.00084   0.00000  -0.00178  -0.00178   1.91643
   A18        1.84717   0.00017   0.00000   0.00002   0.00002   1.84719
   A19        1.99224  -0.00233   0.00000  -0.00352  -0.00353   1.98871
   A20        1.89660   0.00072   0.00000   0.00102   0.00102   1.89763
   A21        1.88819   0.00087   0.00000   0.00177   0.00177   1.88996
   A22        1.92655   0.00107   0.00000   0.00172   0.00173   1.92828
   A23        1.90088   0.00015   0.00000   0.00002   0.00003   1.90091
   A24        1.85400  -0.00036   0.00000  -0.00085  -0.00085   1.85314
   A25        1.98626  -0.00216   0.00000  -0.00343  -0.00344   1.98282
   A26        1.90768   0.00081   0.00000   0.00157   0.00158   1.90926
   A27        1.87793   0.00067   0.00000   0.00097   0.00097   1.87889
   A28        1.92673   0.00092   0.00000   0.00140   0.00140   1.92813
   A29        1.90359   0.00019   0.00000   0.00029   0.00030   1.90390
   A30        1.85656  -0.00033   0.00000  -0.00066  -0.00066   1.85590
    D1       -0.78027  -0.00099   0.00000   0.00121   0.00122  -0.77906
    D2        2.35410  -0.00045   0.00000   0.00302   0.00302   2.35712
    D3        1.32047  -0.00052   0.00000   0.00294   0.00295   1.32342
    D4       -1.82834   0.00001   0.00000   0.00475   0.00475  -1.82359
    D5       -2.92002  -0.00060   0.00000   0.00250   0.00251  -2.91751
    D6        0.21435  -0.00007   0.00000   0.00431   0.00431   0.21866
    D7        0.80292  -0.00064   0.00000  -0.00120  -0.00118   0.80173
    D8        2.96575  -0.00037   0.00000  -0.00062  -0.00062   2.96514
    D9       -1.30831   0.00002   0.00000  -0.00008  -0.00007  -1.30838
   D10       -1.30303  -0.00058   0.00000  -0.00179  -0.00179  -1.30481
   D11        0.85981  -0.00031   0.00000  -0.00122  -0.00122   0.85859
   D12        2.86893   0.00008   0.00000  -0.00067  -0.00067   2.86826
   D13        2.95711  -0.00050   0.00000  -0.00162  -0.00161   2.95550
   D14       -1.16324  -0.00023   0.00000  -0.00105  -0.00105  -1.16428
   D15        0.84589   0.00016   0.00000  -0.00050  -0.00049   0.84539
   D16       -0.02045  -0.00003   0.00000  -0.00095  -0.00095  -0.02140
   D17        3.13776   0.00056   0.00000   0.00198   0.00197   3.13973
   D18        3.12852  -0.00058   0.00000  -0.00280  -0.00280   3.12572
   D19        0.00355   0.00000   0.00000   0.00012   0.00012   0.00367
   D20        0.76508   0.00101   0.00000  -0.00217  -0.00218   0.76290
   D21       -1.33322   0.00057   0.00000  -0.00374  -0.00374  -1.33696
   D22        2.91929   0.00067   0.00000  -0.00265  -0.00266   2.91663
   D23       -2.39276   0.00042   0.00000  -0.00505  -0.00506  -2.39783
   D24        1.79212  -0.00002   0.00000  -0.00662  -0.00662   1.78550
   D25       -0.23855   0.00008   0.00000  -0.00554  -0.00554  -0.24409
   D26       -0.66212   0.00076   0.00000   0.00846   0.00846  -0.65366
   D27       -2.82050   0.00046   0.00000   0.00791   0.00792  -2.81258
   D28        1.45686   0.00005   0.00000   0.00746   0.00746   1.46432
   D29        1.43827   0.00064   0.00000   0.00866   0.00866   1.44693
   D30       -0.72011   0.00035   0.00000   0.00811   0.00811  -0.71199
   D31       -2.72593  -0.00006   0.00000   0.00765   0.00765  -2.71828
   D32       -2.83055   0.00055   0.00000   0.00812   0.00811  -2.82243
   D33        1.29426   0.00025   0.00000   0.00757   0.00757   1.30183
   D34       -0.71156  -0.00016   0.00000   0.00711   0.00711  -0.70445
   D35       -0.09865   0.00012   0.00000  -0.00470  -0.00469  -0.10334
   D36       -2.25114  -0.00007   0.00000  -0.00533  -0.00532  -2.25646
   D37        1.99817  -0.00031   0.00000  -0.00551  -0.00550   1.99267
   D38        2.04350   0.00018   0.00000  -0.00459  -0.00459   2.03891
   D39       -0.10899   0.00000   0.00000  -0.00522  -0.00522  -0.11421
   D40       -2.14286  -0.00025   0.00000  -0.00540  -0.00540  -2.14826
   D41       -2.21060   0.00044   0.00000  -0.00463  -0.00463  -2.21523
   D42        1.92009   0.00026   0.00000  -0.00526  -0.00526   1.91483
   D43       -0.11378   0.00001   0.00000  -0.00544  -0.00544  -0.11922
         Item               Value     Threshold  Converged?
 Maximum Force            0.023365     0.000015     NO 
 RMS     Force            0.002587     0.000010     NO 
 Maximum Displacement     0.030141     0.000060     NO 
 RMS     Displacement     0.007251     0.000040     NO 
 Predicted change in Energy=-5.745136D-04
 GradGradGradGradGradGradGradGradGradGradGradGradGradGradGradGradGradGrad

                          Input orientation:                          
 ---------------------------------------------------------------------
 Center     Atomic      Atomic             Coordinates (Angstroms)
 Number     Number       Type             X           Y           Z
 ---------------------------------------------------------------------
      1          6           0       -1.396970    0.272900   -0.263254
      2          6           0       -0.667075   -0.828893   -0.991374
      3          6           0        0.667748   -0.854640   -0.961741
      4          6           0        1.410513    0.232906   -0.225377
      5          6           0        0.763550    0.552053    1.148404
      6          6           0       -0.790159    0.494542    1.142797
      7          1           0       -1.323739    1.208441   -0.840668
      8          1           0       -2.467205    0.053399   -0.176415
      9          1           0       -1.236835   -1.587535   -1.524456
     10          1           0        1.230867   -1.633340   -1.472575
     11          1           0        1.404982    1.146643   -0.840516
     12          1           0        2.465836   -0.028135   -0.087100
     13          1           0        1.109776    1.538142    1.479957
     14          1           0        1.142994   -0.167520    1.882631
     15          1           0       -1.209380    1.408439    1.580340
     16          1           0       -1.120454   -0.332605    1.781485
 ---------------------------------------------------------------------
                    Distance matrix (angstroms):
                    1          2          3          4          5
     1  C    0.000000
     2  C    1.508924   0.000000
     3  C    2.454036   1.335400   0.000000
     4  C    2.808024   2.455716   1.508870   0.000000
     5  C    2.595872   2.921019   2.537849   1.551674   0.000000
     6  C    1.547361   2.514223   2.893937   2.604479   1.554783
     7  H    1.101820   2.145845   2.870015   2.967556   2.957030
     8  H    1.095958   2.164039   3.356963   3.882180   3.527262
     9  H    2.253329   1.088274   2.116889   3.465553   3.965294
    10  H    3.464353   2.116808   1.088314   2.251810   3.444396
    11  H    2.991253   2.866866   2.136198   1.101518   2.172734
    12  H    3.878521   3.357686   2.163614   1.095887   2.181941
    13  H    3.305057   3.855844   3.447127   2.168466   1.096436
    14  H    3.354134   3.460299   2.964532   2.162314   1.095834
    15  H    2.173356   3.451588   3.886813   3.392098   2.193722
    16  H    2.150362   2.853174   3.315943   3.279190   2.175519
                    6          7          8          9         10
     6  C    0.000000
     7  H    2.174510   0.000000
     8  H    2.178856   1.755810   0.000000
     9  H    3.413034   2.879687   2.454320   0.000000
    10  H    3.930980   3.873118   4.266247   2.468672   0.000000
    11  H    3.029424   2.729420   4.077995   3.862991   2.856242
    12  H    3.519565   4.056829   4.934523   4.267023   2.453848
    13  H    2.193748   3.378757   4.212223   4.929801   4.334790
    14  H    2.173192   3.923570   4.161972   4.391841   3.662480
    15  H    1.096538   2.431945   2.550381   4.314669   4.952526
    16  H    1.095988   3.048252   2.407511   3.538028   4.220134
                   11         12         13         14         15
    11  H    0.000000
    12  H    1.753040   0.000000
    13  H    2.371710   2.597650   0.000000
    14  H    3.034994   2.376800   1.752864   0.000000
    15  H    3.572669   4.283843   2.324948   2.847576   0.000000
    16  H    3.929490   4.055340   2.926524   2.271713   1.754880
                   16
    16  H    0.000000
 Symmetry turned off by external request.
 Stoichiometry    C6H10
 Framework group  C1[X(C6H10)]
 Deg. of freedom    42
 Full point group                 C1      NOp   1
 Rotational constants (GHZ):           4.6212994           4.5511205           2.5871650
 Standard basis: 6-31G(d) (6D, 7F)
   110 basis functions,   208 primitive gaussians,   110 cartesian basis functions
    23 alpha electrons       23 beta electrons
       nuclear repulsion energy       236.0174790460 Hartrees.
 NAtoms=   16 NActive=   16 NUniq=   16 SFac= 1.00D+00 NAtFMM=   60 NAOKFM=F Big=F
 Integral buffers will be    131072 words long.
 Raffenetti 2 integral format.
 Two-electron integral symmetry is turned off.
 One-electron integrals computed using PRISM.
 NBasis=   110 RedAO= T EigKep=  2.06D-03  NBF=   110
 NBsUse=   110 1.00D-06 EigRej= -1.00D+00 NBFU=   110
 Initial guess from the checkpoint file:  "C:\Users\al6323\OneDrive - Imperial College London\Desktop\TSR202511112\TS_guess_opt_TS(Berny)_IRS_DFT_product.chk"
 B after Tr=    -0.000136    0.000610    0.000849
         Rot=    1.000000   -0.000041    0.000004    0.000045 Ang=  -0.01 deg.
 ExpMin= 1.61D-01 ExpMax= 3.05D+03 ExpMxC= 4.57D+02 IAcc=3 IRadAn=         5 AccDes= 0.00D+00
 Harris functional with IExCor=  402 and IRadAn=       5 diagonalized for initial guess.
 HarFok:  IExCor=  402 AccDes= 0.00D+00 IRadAn=         5 IDoV= 1 UseB2=F ITyADJ=14
 ICtDFT=  3500011 ScaDFX=  1.000000  1.000000  1.000000  1.000000
 FoFCou: FMM=F IPFlag=           0 FMFlag=      100000 FMFlg1=           0
         NFxFlg=           0 DoJE=T BraDBF=F KetDBF=T FulRan=T
         wScrn=  0.000000 ICntrl=       500 IOpCl=  0 I1Cent=   200000004 NGrid=           0
         NMat0=    1 NMatS0=      1 NMatT0=    0 NMatD0=    1 NMtDS0=    0 NMtDT0=    0
 Symmetry not used in FoFCou.
 Requested convergence on RMS density matrix=1.00D-08 within  32 cycles.
 Requested convergence on MAX density matrix=1.00D-06.
 Requested convergence on             energy=1.00D-06.
 No special actions if energy rises.
 Integral accuracy reduced to 1.0D-05 until final iterations.
 Initial convergence to 1.0D-05 achieved.  Increase integral accuracy.
 SCF Done:  E(RB3LYP) =  -234.639158133     A.U. after   10 cycles
            NFock= 10  Conv=0.35D-08     -V/T= 2.0102
 QCSCF skips out because SCF is already converged.
 Calling FoFJK, ICntrl=      2127 FMM=F ISym2X=0 I1Cent= 0 IOpClX= 0 NMat=1 NMatS=1 NMatT=0.
 -------------------------------------------------------------------
 Center     Atomic                   Forces (Hartrees/Bohr)
 Number     Number              X              Y              Z
 -------------------------------------------------------------------
      1        6          -0.000006037    0.000020517   -0.000001725
      2        6          -0.001673528    0.000023865   -0.000024562
      3        6           0.001664131   -0.000033912    0.000046590
      4        6           0.000007899    0.000005111    0.000000549
      5        6           0.000006108   -0.000011077   -0.000012735
      6        6          -0.000008042   -0.000013567   -0.000001230
      7        1          -0.000005560   -0.000002135   -0.000002976
      8        1          -0.000000792   -0.000004132    0.000006442
      9        1          -0.000022766    0.000005406   -0.000006277
     10        1           0.000021663    0.000006628   -0.000009177
     11        1           0.000016975   -0.000000109   -0.000001086
     12        1          -0.000002905   -0.000014347    0.000005863
     13        1          -0.000011102    0.000009450   -0.000013688
     14        1           0.000011570    0.000016629    0.000009296
     15        1           0.000001292   -0.000003720    0.000009797
     16        1           0.000001094   -0.000004606   -0.000005081
 -------------------------------------------------------------------
 Cartesian Forces:  Max     0.001673528 RMS     0.000340910

 GradGradGradGradGradGradGradGradGradGradGradGradGradGradGradGradGradGrad
 Berny optimization.
 Using GEDIIS/GDIIS optimizer.
 FormGI is forming the generalized inverse of G from B-inverse, IUseBI=4.
 Internal  Forces:  Max     0.001592369 RMS     0.000174839
 Search for a local minimum.
 Step number   2 out of a maximum of   99
 All quantities printed in internal units (Hartrees-Bohrs-Radians)
 Mixed Optimization -- En-DIIS/RFO-DIIS
 Update second derivatives using D2CorX and points    1    2
 DE= -5.48D-04 DEPred=-5.75D-04 R= 9.54D-01
 TightC=F SS=  1.41D+00  RLast= 5.66D-02 DXNew= 5.0454D-01 1.6982D-01
 Trust test= 9.54D-01 RLast= 5.66D-02 DXMaxT set to 3.00D-01
 ITU=  1  0
 Use linear search instead of GDIIS.
     Eigenvalues ---   -0.00002   0.00294   0.00970   0.01329   0.01637
     Eigenvalues ---    0.03100   0.03117   0.03898   0.04136   0.04254
     Eigenvalues ---    0.04386   0.04989   0.05399   0.06909   0.07108
     Eigenvalues ---    0.07664   0.07928   0.08336   0.10112   0.10460
     Eigenvalues ---    0.10688   0.11473   0.11978   0.18397   0.19838
     Eigenvalues ---    0.20397   0.24291   0.25327   0.26065   0.28497
     Eigenvalues ---    0.29728   0.32165   0.32433   0.32834   0.33235
     Eigenvalues ---    0.33629   0.33745   0.33850   0.34165   0.35498
     Eigenvalues ---    0.35554   0.55580
 RFO step:  Lambda=-7.50565630D-05 EMin=-1.95586782D-05
 Quartic linear search produced a step of -0.05851.
 Iteration  1 RMS(Cart)=  0.09603892 RMS(Int)=  0.02503584
 Iteration  2 RMS(Cart)=  0.02335161 RMS(Int)=  0.00196723
 Iteration  3 RMS(Cart)=  0.00045085 RMS(Int)=  0.00192084
 Iteration  4 RMS(Cart)=  0.00000017 RMS(Int)=  0.00192084
 Variable       Old X    -DE/DX   Delta X   Delta X   Delta X     New X
                                 (Linear)    (Quad)   (Total)
    R1        2.85145  -0.00005  -0.00002   0.00039   0.00121   2.85267
    R2        2.92409   0.00004   0.00011  -0.00951  -0.00946   2.91463
    R3        2.08214   0.00000  -0.00001   0.00059   0.00058   2.08272
    R4        2.07106   0.00000   0.00000   0.00037   0.00037   2.07143
    R5        2.52354   0.00159   0.00264  -0.00023   0.00396   2.52750
    R6        2.05654   0.00001   0.00008  -0.00002   0.00006   2.05660
    R7        2.85135  -0.00005  -0.00001   0.00015   0.00087   2.85223
    R8        2.05662   0.00001   0.00008   0.00019   0.00027   2.05689
    R9        2.93224   0.00004   0.00008   0.01110   0.01001   2.94225
   R10        2.08157   0.00000  -0.00001  -0.00081  -0.00082   2.08075
   R11        2.07093   0.00000   0.00000   0.00010   0.00010   2.07103
   R12        2.93811   0.00012   0.00035  -0.00545  -0.00674   2.93137
   R13        2.07196   0.00000   0.00000  -0.00020  -0.00020   2.07176
   R14        2.07083   0.00000   0.00001  -0.00014  -0.00013   2.07070
   R15        2.07216   0.00000   0.00000   0.00039   0.00039   2.07254
   R16        2.07112   0.00000   0.00002   0.00060   0.00061   2.07173
    A1        1.93197  -0.00001  -0.00009  -0.02477  -0.02818   1.90379
    A2        1.91236   0.00003   0.00005   0.01450   0.01523   1.92759
    A3        1.94374  -0.00003   0.00001  -0.00252  -0.00126   1.94248
    A4        1.90552  -0.00003  -0.00006   0.01008   0.01037   1.91589
    A5        1.91733   0.00003   0.00010   0.00165   0.00317   1.92050
    A6        1.85093   0.00000  -0.00001   0.00278   0.00228   1.85321
    A7        2.07931  -0.00013  -0.00023   0.00462   0.00249   2.08180
    A8        2.08534   0.00004   0.00004  -0.00101  -0.00017   2.08517
    A9        2.11852   0.00008   0.00019  -0.00374  -0.00278   2.11574
   A10        2.08172  -0.00012  -0.00023   0.01095   0.00893   2.09066
   A11        2.11833   0.00008   0.00018  -0.00433  -0.00345   2.11487
   A12        2.08297   0.00004   0.00005  -0.00722  -0.00657   2.07640
   A13        1.95527  -0.00002  -0.00016   0.03199   0.02606   1.98133
   A14        1.89958   0.00004   0.00009  -0.01631  -0.01417   1.88541
   A15        1.94329  -0.00002   0.00001  -0.00466  -0.00341   1.93987
   A16        1.89833  -0.00002  -0.00004  -0.00717  -0.00656   1.89177
   A17        1.91643   0.00004   0.00010  -0.00009   0.00260   1.91903
   A18        1.84719   0.00000   0.00000  -0.00635  -0.00717   1.84002
   A19        1.98871   0.00015   0.00021   0.00809  -0.00114   1.98758
   A20        1.89763  -0.00004  -0.00006  -0.01238  -0.00939   1.88824
   A21        1.88996  -0.00005  -0.00010   0.01541   0.01806   1.90802
   A22        1.92828  -0.00008  -0.00010  -0.00301  -0.00066   1.92762
   A23        1.90091  -0.00001   0.00000  -0.00489  -0.00190   1.89900
   A24        1.85314   0.00002   0.00005  -0.00360  -0.00492   1.84823
   A25        1.98282   0.00013   0.00020  -0.00468  -0.01263   1.97019
   A26        1.90926  -0.00005  -0.00009   0.01580   0.01825   1.92751
   A27        1.87889  -0.00004  -0.00006  -0.01214  -0.00975   1.86915
   A28        1.92813  -0.00007  -0.00008  -0.00407  -0.00122   1.92692
   A29        1.90390  -0.00001  -0.00002   0.00247   0.00420   1.90810
   A30        1.85590   0.00002   0.00004   0.00281   0.00167   1.85756
    D1       -0.77906   0.00007  -0.00007   0.01501   0.01674  -0.76231
    D2        2.35712   0.00003  -0.00018  -0.01130  -0.01052   2.34660
    D3        1.32342   0.00005  -0.00017   0.02121   0.02133   1.34475
    D4       -1.82359   0.00001  -0.00028  -0.00510  -0.00593  -1.82953
    D5       -2.91751   0.00005  -0.00015   0.03211   0.03294  -2.88457
    D6        0.21866   0.00001  -0.00025   0.00580   0.00568   0.22434
    D7        0.80173   0.00006   0.00007   0.15135   0.15022   0.95195
    D8        2.96514   0.00003   0.00004   0.15474   0.15337   3.11850
    D9       -1.30838   0.00001   0.00000   0.15968   0.15944  -1.14894
   D10       -1.30481   0.00004   0.00010   0.14242   0.14256  -1.16226
   D11        0.85859   0.00001   0.00007   0.14582   0.14571   1.00430
   D12        2.86826   0.00000   0.00004   0.15076   0.15177   3.02003
   D13        2.95550   0.00004   0.00009   0.13241   0.13198   3.08749
   D14       -1.16428   0.00001   0.00006   0.13580   0.13513  -1.02915
   D15        0.84539  -0.00001   0.00003   0.14075   0.14120   0.98659
   D16       -0.02140   0.00000   0.00006  -0.05336  -0.05330  -0.07470
   D17        3.13973  -0.00004  -0.00012  -0.01730  -0.01850   3.12123
   D18        3.12572   0.00004   0.00016  -0.02654  -0.02556   3.10016
   D19        0.00367   0.00000  -0.00001   0.00951   0.00924   0.01291
   D20        0.76290  -0.00007   0.00013  -0.05455  -0.05672   0.70618
   D21       -1.33696  -0.00005   0.00022  -0.05489  -0.05529  -1.39225
   D22        2.91663  -0.00006   0.00016  -0.03463  -0.03632   2.88032
   D23       -2.39783  -0.00003   0.00030  -0.08984  -0.09073  -2.48855
   D24        1.78550  -0.00001   0.00039  -0.09018  -0.08929   1.69620
   D25       -0.24409  -0.00002   0.00032  -0.06992  -0.07032  -0.31442
   D26       -0.65366  -0.00005  -0.00050   0.21503   0.21423  -0.43943
   D27       -2.81258  -0.00003  -0.00046   0.22265   0.22293  -2.58965
   D28        1.46432   0.00000  -0.00044   0.22522   0.22421   1.68853
   D29        1.44693  -0.00004  -0.00051   0.21002   0.20847   1.65539
   D30       -0.71199  -0.00001  -0.00047   0.21765   0.21717  -0.49483
   D31       -2.71828   0.00001  -0.00045   0.22022   0.21845  -2.49983
   D32       -2.82243  -0.00003  -0.00047   0.19837   0.19766  -2.62477
   D33        1.30183  -0.00001  -0.00044   0.20599   0.20636   1.50820
   D34       -0.70445   0.00001  -0.00042   0.20856   0.20764  -0.49681
   D35       -0.10334  -0.00002   0.00027  -0.25607  -0.25558  -0.35892
   D36       -2.25646   0.00000   0.00031  -0.27029  -0.26933  -2.52579
   D37        1.99267   0.00002   0.00032  -0.27282  -0.27314   1.71954
   D38        2.03891  -0.00002   0.00027  -0.26876  -0.26921   1.76970
   D39       -0.11421   0.00000   0.00031  -0.28298  -0.28296  -0.39718
   D40       -2.14826   0.00002   0.00032  -0.28550  -0.28677  -2.43503
   D41       -2.21523  -0.00004   0.00027  -0.27767  -0.27662  -2.49185
   D42        1.91483  -0.00003   0.00031  -0.29189  -0.29038   1.62445
   D43       -0.11922  -0.00001   0.00032  -0.29442  -0.29418  -0.41340
         Item               Value     Threshold  Converged?
 Maximum Force            0.001592     0.000015     NO 
 RMS     Force            0.000175     0.000010     NO 
 Maximum Displacement     0.461238     0.000060     NO 
 RMS     Displacement     0.113508     0.000040     NO 
 Predicted change in Energy=-4.908487D-05
 GradGradGradGradGradGradGradGradGradGradGradGradGradGradGradGradGradGrad

                          Input orientation:                          
 ---------------------------------------------------------------------
 Center     Atomic      Atomic             Coordinates (Angstroms)
 Number     Number       Type             X           Y           Z
 ---------------------------------------------------------------------
      1          6           0       -1.397319    0.307456   -0.258210
      2          6           0       -0.688116   -0.789946   -1.014207
      3          6           0        0.645116   -0.873690   -0.948050
      4          6           0        1.426534    0.180758   -0.202658
      5          6           0        0.752693    0.629428    1.127301
      6          6           0       -0.784792    0.425043    1.152411
      7          1           0       -1.296951    1.267840   -0.789501
      8          1           0       -2.473009    0.109665   -0.185274
      9          1           0       -1.271715   -1.515737   -1.577281
     10          1           0        1.186391   -1.663644   -1.465479
     11          1           0        1.522202    1.060624   -0.857691
     12          1           0        2.452823   -0.151100   -0.008532
     13          1           0        1.001764    1.683259    1.298594
     14          1           0        1.196207    0.076557    1.962964
     15          1           0       -1.268842    1.233247    1.713968
     16          1           0       -1.018540   -0.504961    1.683782
 ---------------------------------------------------------------------
                    Distance matrix (angstroms):
                    1          2          3          4          5
     1  C    0.000000
     2  C    1.509566   0.000000
     3  C    2.458154   1.337496   0.000000
     4  C    2.827240   2.464269   1.509333   0.000000
     5  C    2.577956   2.945608   2.564765   1.556971   0.000000
     6  C    1.542358   2.485916   2.853644   2.604967   1.551214
     7  H    1.102126   2.157697   2.895326   2.990569   2.877975
     8  H    1.096152   2.163856   3.357308   3.900230   3.521102
     9  H    2.253832   1.088308   2.117166   3.471056   4.001840
    10  H    3.466740   2.116783   1.088457   2.248155   3.488378
    11  H    3.074124   2.886972   2.125798   1.101083   2.172158
    12  H    3.885383   3.359316   2.161629   1.095940   2.188557
    13  H    3.173652   3.784373   3.422367   2.166033   1.096329
    14  H    3.422471   3.628366   3.111378   2.180328   1.095766
    15  H    2.182449   3.445793   3.897276   3.470770   2.189835
    16  H    2.138885   2.733046   3.135323   3.163425   2.175723
                    6          7          8          9         10
     6  C    0.000000
     7  H    2.177988   0.000000
     8  H    2.176910   1.757718   0.000000
     9  H    3.384515   2.893015   2.454124   0.000000
    10  H    3.886068   3.900965   4.263186   2.465088   0.000000
    11  H    3.125171   2.827580   4.161511   3.867999   2.811372
    12  H    3.487389   4.084618   4.935895   4.265606   2.452414
    13  H    2.190036   3.133177   4.092933   4.865484   4.344645
    14  H    2.168593   3.900135   4.251960   4.599932   3.844817
    15  H    1.096743   2.503866   2.513877   4.288269   4.952679
    16  H    1.096312   3.055726   2.446756   3.423492   4.015234
                   11         12         13         14         15
    11  H    0.000000
    12  H    1.747971   0.000000
    13  H    2.303931   2.679370   0.000000
    14  H    3.005122   2.348980   1.749482   0.000000
    15  H    3.799099   4.328304   2.351743   2.734300   0.000000
    16  H    3.919886   3.878080   3.003049   2.306774   1.756397
                   16
    16  H    0.000000
 Symmetry turned off by external request.
 Stoichiometry    C6H10
 Framework group  C1[X(C6H10)]
 Deg. of freedom    42
 Full point group                 C1      NOp   1
 Rotational constants (GHZ):           4.6316980           4.5462048           2.5856685
 Standard basis: 6-31G(d) (6D, 7F)
   110 basis functions,   208 primitive gaussians,   110 cartesian basis functions
    23 alpha electrons       23 beta electrons
       nuclear repulsion energy       236.0258352247 Hartrees.
 NAtoms=   16 NActive=   16 NUniq=   16 SFac= 1.00D+00 NAtFMM=   60 NAOKFM=F Big=F
 Integral buffers will be    131072 words long.
 Raffenetti 2 integral format.
 Two-electron integral symmetry is turned off.
 One-electron integrals computed using PRISM.
 NBasis=   110 RedAO= T EigKep=  2.16D-03  NBF=   110
 NBsUse=   110 1.00D-06 EigRej= -1.00D+00 NBFU=   110
 Initial guess from the checkpoint file:  "C:\Users\al6323\OneDrive - Imperial College London\Desktop\TSR202511112\TS_guess_opt_TS(Berny)_IRS_DFT_product.chk"
 B after Tr=    -0.007027    0.002116    0.001429
         Rot=    0.999996   -0.000572    0.000389    0.002615 Ang=  -0.31 deg.
 ExpMin= 1.61D-01 ExpMax= 3.05D+03 ExpMxC= 4.57D+02 IAcc=3 IRadAn=         5 AccDes= 0.00D+00
 Harris functional with IExCor=  402 and IRadAn=       5 diagonalized for initial guess.
 HarFok:  IExCor=  402 AccDes= 0.00D+00 IRadAn=         5 IDoV= 1 UseB2=F ITyADJ=14
 ICtDFT=  3500011 ScaDFX=  1.000000  1.000000  1.000000  1.000000
 FoFCou: FMM=F IPFlag=           0 FMFlag=      100000 FMFlg1=           0
         NFxFlg=           0 DoJE=T BraDBF=F KetDBF=T FulRan=T
         wScrn=  0.000000 ICntrl=       500 IOpCl=  0 I1Cent=   200000004 NGrid=           0
         NMat0=    1 NMatS0=      1 NMatT0=    0 NMatD0=    1 NMtDS0=    0 NMtDT0=    0
 Symmetry not used in FoFCou.
 Requested convergence on RMS density matrix=1.00D-08 within  32 cycles.
 Requested convergence on MAX density matrix=1.00D-06.
 Requested convergence on             energy=1.00D-06.
 No special actions if energy rises.
 Integral accuracy reduced to 1.0D-05 until final iterations.
 Initial convergence to 1.0D-05 achieved.  Increase integral accuracy.
 SCF Done:  E(RB3LYP) =  -234.639227984     A.U. after   11 cycles
            NFock= 11  Conv=0.36D-08     -V/T= 2.0103
 QCSCF skips out because SCF is already converged.
 Calling FoFJK, ICntrl=      2127 FMM=F ISym2X=0 I1Cent= 0 IOpClX= 0 NMat=1 NMatS=1 NMatT=0.
 -------------------------------------------------------------------
 Center     Atomic                   Forces (Hartrees/Bohr)
 Number     Number              X              Y              Z
 -------------------------------------------------------------------
      1        6          -0.000518691   -0.000545238    0.000021207
      2        6           0.000706483    0.000018859   -0.000330977
      3        6          -0.000988604    0.000705186   -0.000630087
      4        6           0.000997334   -0.000512351    0.000260279
      5        6          -0.001192812    0.000013996   -0.000078038
      6        6           0.000918033    0.000583862    0.000675383
      7        1           0.000079205   -0.000083859    0.000102888
      8        1           0.000018845   -0.000188377   -0.000167038
      9        1           0.000006947   -0.000013029    0.000027916
     10        1           0.000028700    0.000039440    0.000044712
     11        1           0.000119209   -0.000095250   -0.000015558
     12        1          -0.000053997   -0.000348256   -0.000009372
     13        1          -0.000801910    0.000334271    0.000064849
     14        1           0.000008594   -0.000322989   -0.000067077
     15        1           0.000354118    0.000460910   -0.000133449
     16        1           0.000318546   -0.000047174    0.000234363
 -------------------------------------------------------------------
 Cartesian Forces:  Max     0.001192812 RMS     0.000434556

 GradGradGradGradGradGradGradGradGradGradGradGradGradGradGradGradGradGrad
 Berny optimization.
 Using GEDIIS/GDIIS optimizer.
 FormGI is forming the generalized inverse of G from B-inverse, IUseBI=4.
 Internal  Forces:  Max     0.001416815 RMS     0.000265522
 Search for a local minimum.
 Step number   3 out of a maximum of   99
 All quantities printed in internal units (Hartrees-Bohrs-Radians)
 Mixed Optimization -- En-DIIS/RFO-DIIS
 Swapping is turned off.
 Update second derivatives using D2CorX and points    2    3
 DE= -6.99D-05 DEPred=-4.91D-05 R= 1.42D+00
 TightC=F SS=  1.41D+00  RLast= 1.15D+00 DXNew= 5.0454D-01 3.4644D+00
 Trust test= 1.42D+00 RLast= 1.15D+00 DXMaxT set to 5.05D-01
 ITU=  1  1  0
     Eigenvalues ---    0.00000   0.00623   0.01090   0.01542   0.01733
     Eigenvalues ---    0.03100   0.03145   0.03895   0.04133   0.04264
     Eigenvalues ---    0.04450   0.04996   0.06596   0.06918   0.07493
     Eigenvalues ---    0.07770   0.07944   0.08377   0.10269   0.10635
     Eigenvalues ---    0.11021   0.11578   0.11989   0.18428   0.19948
     Eigenvalues ---    0.20612   0.24213   0.25315   0.28411   0.29340
     Eigenvalues ---    0.32161   0.32358   0.32435   0.32844   0.33259
     Eigenvalues ---    0.33631   0.33754   0.33862   0.34773   0.35534
     Eigenvalues ---    0.35629   0.82700
 Eigenvalue     1 is   4.72D-06 Eigenvector:
                          D43       D42       D40       D39       D41
   1                   -0.25238  -0.24846  -0.24659  -0.24268  -0.23763
                          D37       D38       D36       D35       D27
   1                   -0.23512  -0.23184  -0.23121  -0.22037   0.19804
 En-DIIS/RFO-DIIS/Sim-DIIS IScMMF=       -3 using points:     3    2
 RFO step:  Lambda=-4.31990636D-05.
 DidBck=F Rises=F RFO-DIIS coefs:    3.00000   -2.00000
 Iteration  1 RMS(Cart)=  0.11064315 RMS(Int)=  0.14796066
 Iteration  2 RMS(Cart)=  0.09487427 RMS(Int)=  0.05512220
 Iteration  3 RMS(Cart)=  0.04905405 RMS(Int)=  0.01280764
 Iteration  4 RMS(Cart)=  0.00200481 RMS(Int)=  0.01266601
 Iteration  5 RMS(Cart)=  0.00000688 RMS(Int)=  0.01266601
 Iteration  6 RMS(Cart)=  0.00000012 RMS(Int)=  0.01266601
 Variable       Old X    -DE/DX   Delta X   Delta X   Delta X     New X
                                 (Linear)    (Quad)   (Total)
    R1        2.85267   0.00015   0.00243  -0.00012   0.00788   2.86054
    R2        2.91463   0.00058  -0.01891   0.00012  -0.01919   2.89545
    R3        2.08272  -0.00011   0.00116  -0.00007   0.00109   2.08380
    R4        2.07143   0.00000   0.00073   0.00014   0.00087   2.07230
    R5        2.52750  -0.00053   0.00792   0.00032   0.01894   2.54644
    R6        2.05660  -0.00001   0.00013   0.00009   0.00022   2.05682
    R7        2.85223   0.00009   0.00175  -0.00003   0.00802   2.86025
    R8        2.05689  -0.00004   0.00054   0.00018   0.00071   2.05760
    R9        2.94225   0.00056   0.02002   0.00147   0.01360   2.95585
   R10        2.08075  -0.00006  -0.00165  -0.00012  -0.00177   2.07898
   R11        2.07103   0.00005   0.00020   0.00019   0.00039   2.07142
   R12        2.93137  -0.00142  -0.01349  -0.00267  -0.02881   2.90256
   R13        2.07176   0.00015  -0.00040   0.00005  -0.00035   2.07141
   R14        2.07070   0.00012  -0.00026   0.00013  -0.00013   2.07057
   R15        2.07254   0.00012   0.00077   0.00006   0.00083   2.07337
   R16        2.07173   0.00009   0.00123   0.00016   0.00139   2.07312
    A1        1.90379   0.00024  -0.05636   0.00317  -0.07293   1.83086
    A2        1.92759  -0.00018   0.03045  -0.00093   0.03142   1.95901
    A3        1.94248  -0.00011  -0.00252  -0.00190   0.00532   1.94780
    A4        1.91589  -0.00024   0.02074  -0.00014   0.02283   1.93872
    A5        1.92050   0.00019   0.00634   0.00012   0.01482   1.93532
    A6        1.85321   0.00008   0.00457  -0.00044   0.00097   1.85418
    A7        2.08180  -0.00006   0.00498   0.00454  -0.00508   2.07672
    A8        2.08517   0.00003  -0.00034  -0.00199   0.00408   2.08925
    A9        2.11574   0.00002  -0.00556  -0.00248  -0.00206   2.11368
   A10        2.09066   0.00018   0.01787   0.00664   0.01451   2.10516
   A11        2.11487  -0.00002  -0.00690  -0.00272  -0.00529   2.10959
   A12        2.07640  -0.00015  -0.01314  -0.00404  -0.01391   2.06249
   A13        1.98133  -0.00015   0.05212   0.00421   0.01667   1.99801
   A14        1.88541  -0.00017  -0.02833  -0.00114  -0.01309   1.87232
   A15        1.93987   0.00006  -0.00683  -0.00340  -0.00303   1.93684
   A16        1.89177  -0.00002  -0.01313   0.00164  -0.00692   1.88485
   A17        1.91903   0.00027   0.00520  -0.00019   0.02272   1.94175
   A18        1.84002   0.00001  -0.01435  -0.00142  -0.02103   1.81899
   A19        1.98758   0.00041  -0.00227   0.00505  -0.05683   1.93075
   A20        1.88824   0.00021  -0.01878   0.00080  -0.00130   1.88694
   A21        1.90802  -0.00013   0.03612  -0.00077   0.05495   1.96297
   A22        1.92762  -0.00048  -0.00132  -0.00367   0.00699   1.93461
   A23        1.89900  -0.00026  -0.00381  -0.00167   0.01777   1.91678
   A24        1.84823   0.00026  -0.00984  -0.00007  -0.01883   1.82939
   A25        1.97019  -0.00008  -0.02525   0.00260  -0.07419   1.89600
   A26        1.92751   0.00020   0.03650  -0.00040   0.05406   1.98156
   A27        1.86915   0.00018  -0.01949   0.00100  -0.00546   1.86368
   A28        1.92692  -0.00012  -0.00244  -0.00244   0.01675   1.94367
   A29        1.90810  -0.00030   0.00840  -0.00150   0.01486   1.92295
   A30        1.85756   0.00014   0.00333   0.00072  -0.00378   1.85378
    D1       -0.76231   0.00032   0.03348   0.01769   0.06222  -0.70009
    D2        2.34660   0.00020  -0.02104   0.01998   0.00563   2.35223
    D3        1.34475   0.00006   0.04265   0.01895   0.06224   1.40698
    D4       -1.82953  -0.00005  -0.01187   0.02125   0.00564  -1.82388
    D5       -2.88457  -0.00002   0.06588   0.01664   0.08762  -2.79695
    D6        0.22434  -0.00014   0.01136   0.01893   0.03103   0.25537
    D7        0.95195  -0.00033   0.30044  -0.00614   0.28178   1.23373
    D8        3.11850  -0.00039   0.30674  -0.00773   0.28788  -2.87680
    D9       -1.14894  -0.00002   0.31887  -0.00652   0.30909  -0.83985
   D10       -1.16226  -0.00011   0.28511  -0.00690   0.27556  -0.88669
   D11        1.00430  -0.00017   0.29141  -0.00849   0.28166   1.28596
   D12        3.02003   0.00020   0.30355  -0.00728   0.30287  -2.96028
   D13        3.08749  -0.00018   0.26397  -0.00635   0.25138  -2.94432
   D14       -1.02915  -0.00024   0.27027  -0.00794   0.25748  -0.77167
   D15        0.98659   0.00013   0.28240  -0.00674   0.27869   1.26528
   D16       -0.07470   0.00000  -0.10661  -0.00061  -0.10548  -0.18018
   D17        3.12123  -0.00018  -0.03700   0.00222  -0.04071   3.08052
   D18        3.10016   0.00012  -0.05112  -0.00296  -0.04819   3.05197
   D19        0.01291  -0.00006   0.01849  -0.00013   0.01659   0.02950
   D20        0.70618  -0.00043  -0.11344  -0.02836  -0.15545   0.55073
   D21       -1.39225  -0.00019  -0.11057  -0.03229  -0.14801  -1.54026
   D22        2.88032  -0.00014  -0.07263  -0.02808  -0.11396   2.76636
   D23       -2.48855  -0.00025  -0.18145  -0.03110  -0.21828  -2.70683
   D24        1.69620  -0.00001  -0.17858  -0.03502  -0.21083   1.48537
   D25       -0.31442   0.00004  -0.14064  -0.03081  -0.17678  -0.49120
   D26       -0.43943   0.00039   0.42846   0.03738   0.45711   0.01768
   D27       -2.58965   0.00058   0.44586   0.03807   0.48600  -2.10365
   D28        1.68853   0.00023   0.44842   0.03813   0.47963   2.16817
   D29        1.65539   0.00006   0.41693   0.03975   0.44626   2.10166
   D30       -0.49483   0.00025   0.43433   0.04045   0.47516  -0.01967
   D31       -2.49983  -0.00010   0.43690   0.04050   0.46879  -2.03104
   D32       -2.62477   0.00020   0.39532   0.03888   0.42935  -2.19543
   D33        1.50820   0.00040   0.41272   0.03957   0.45824   1.96643
   D34       -0.49681   0.00005   0.41529   0.03962   0.45187  -0.04494
   D35       -0.35892   0.00009  -0.51115  -0.02104  -0.52391  -0.88282
   D36       -2.52579  -0.00002  -0.53866  -0.02057  -0.55195  -3.07774
   D37        1.71954   0.00006  -0.54627  -0.01913  -0.56646   1.15307
   D38        1.76970   0.00029  -0.53842  -0.01915  -0.55956   1.21013
   D39       -0.39718   0.00017  -0.56593  -0.01868  -0.58761  -0.98478
   D40       -2.43503   0.00025  -0.57354  -0.01724  -0.60212  -3.03716
   D41       -2.49185   0.00018  -0.55324  -0.02225  -0.56798  -3.05983
   D42        1.62445   0.00006  -0.58075  -0.02178  -0.59602   1.02843
   D43       -0.41340   0.00014  -0.58836  -0.02035  -0.61054  -1.02394
         Item               Value     Threshold  Converged?
 Maximum Force            0.001417     0.000015     NO 
 RMS     Force            0.000266     0.000010     NO 
 Maximum Displacement     1.061329     0.000060     NO 
 RMS     Displacement     0.241122     0.000040     NO 
 Predicted change in Energy=-5.671346D-05
 GradGradGradGradGradGradGradGradGradGradGradGradGradGradGradGradGradGrad

                          Input orientation:                          
 ---------------------------------------------------------------------
 Center     Atomic      Atomic             Coordinates (Angstroms)
 Number     Number       Type             X           Y           Z
 ---------------------------------------------------------------------
      1          6           0       -1.395133    0.380853   -0.222970
      2          6           0       -0.726618   -0.696823   -1.049464
      3          6           0        0.598452   -0.898604   -0.910596
      4          6           0        1.449004    0.078068   -0.127277
      5          6           0        0.705848    0.780182    1.056519
      6          6           0       -0.742380    0.278958    1.159485
      7          1           0       -1.254505    1.385648   -0.654895
      8          1           0       -2.478516    0.224671   -0.156238
      9          1           0       -1.331525   -1.347128   -1.678634
     10          1           0        1.100480   -1.702078   -1.447214
     11          1           0        1.782308    0.856990   -0.829071
     12          1           0        2.378157   -0.394707    0.211393
     13          1           0        0.732710    1.862015    0.882033
     14          1           0        1.217229    0.638188    2.015102
     15          1           0       -1.294349    0.810317    1.944849
     16          1           0       -0.756715   -0.781755    1.439117
 ---------------------------------------------------------------------
                    Distance matrix (angstroms):
                    1          2          3          4          5
     1  C    0.000000
     2  C    1.513735   0.000000
     3  C    2.466622   1.347520   0.000000
     4  C    2.861809   2.486808   1.513577   0.000000
     5  C    2.492123   2.944260   2.588319   1.564167   0.000000
     6  C    1.532204   2.414923   2.733078   2.549172   1.535966
     7  H    1.102701   2.184270   2.952395   3.049115   2.671799
     8  H    1.096615   2.171670   3.361329   3.930362   3.452470
     9  H    2.260293   1.088422   2.125057   3.488443   4.019627
    10  H    3.473538   2.122977   1.088835   2.243350   3.547679
    11  H    3.269587   2.959327   2.119026   1.100148   2.172583
    12  H    3.876582   3.364620   2.163359   1.096148   2.211610
    13  H    2.818260   3.522495   3.294323   2.171233   1.096143
    14  H    3.449582   3.866828   3.362190   2.226486   1.095698
    15  H    2.212247   3.399957   3.828404   3.515093   2.188796
    16  H    2.126445   2.490212   2.715011   2.838676   2.173734
                    6          7          8          9         10
     6  C    0.000000
     7  H    2.186094   0.000000
     8  H    2.179046   1.759185   0.000000
     9  H    3.323577   2.919253   2.470593   0.000000
    10  H    3.757062   3.963304   4.264762   2.468642   0.000000
    11  H    3.265352   3.087401   4.359720   3.908433   2.719525
    12  H    3.330234   4.137191   4.909792   4.270954   2.468330
    13  H    2.181499   2.556970   3.751117   4.595289   4.273571
    14  H    2.168223   3.714437   4.306303   4.907271   4.180682
    15  H    1.097183   2.662943   2.481895   4.217296   4.853187
    16  H    1.097047   3.054557   2.553948   3.220315   3.553459
                   11         12         13         14         15
    11  H    0.000000
    12  H    1.733305   0.000000
    13  H    2.244908   2.872290   0.000000
    14  H    2.908008   2.380754   1.736767   0.000000
    15  H    4.142781   4.236066   2.518851   2.518449   0.000000
    16  H    3.778465   3.388884   3.085166   2.498889   1.754853
                   16
    16  H    0.000000
 Symmetry turned off by external request.
 Stoichiometry    C6H10
 Framework group  C1[X(C6H10)]
 Deg. of freedom    42
 Full point group                 C1      NOp   1
 Rotational constants (GHZ):           4.7197955           4.5598574           2.6440209
 Standard basis: 6-31G(d) (6D, 7F)
   110 basis functions,   208 primitive gaussians,   110 cartesian basis functions
    23 alpha electrons       23 beta electrons
       nuclear repulsion energy       237.0961487022 Hartrees.
 NAtoms=   16 NActive=   16 NUniq=   16 SFac= 1.00D+00 NAtFMM=   60 NAOKFM=F Big=F
 Integral buffers will be    131072 words long.
 Raffenetti 2 integral format.
 Two-electron integral symmetry is turned off.
 One-electron integrals computed using PRISM.
 NBasis=   110 RedAO= T EigKep=  2.40D-03  NBF=   110
 NBsUse=   110 1.00D-06 EigRej= -1.00D+00 NBFU=   110
 Initial guess from the checkpoint file:  "C:\Users\al6323\OneDrive - Imperial College London\Desktop\TSR202511112\TS_guess_opt_TS(Berny)_IRS_DFT_product.chk"
 B after Tr=    -0.013683    0.008993    0.009959
         Rot=    0.999983   -0.001950    0.000552    0.005390 Ang=  -0.66 deg.
 ExpMin= 1.61D-01 ExpMax= 3.05D+03 ExpMxC= 4.57D+02 IAcc=3 IRadAn=         5 AccDes= 0.00D+00
 Harris functional with IExCor=  402 and IRadAn=       5 diagonalized for initial guess.
 HarFok:  IExCor=  402 AccDes= 0.00D+00 IRadAn=         5 IDoV= 1 UseB2=F ITyADJ=14
 ICtDFT=  3500011 ScaDFX=  1.000000  1.000000  1.000000  1.000000
 FoFCou: FMM=F IPFlag=           0 FMFlag=      100000 FMFlg1=           0
         NFxFlg=           0 DoJE=T BraDBF=F KetDBF=T FulRan=T
         wScrn=  0.000000 ICntrl=       500 IOpCl=  0 I1Cent=   200000004 NGrid=           0
         NMat0=    1 NMatS0=      1 NMatT0=    0 NMatD0=    1 NMtDS0=    0 NMtDT0=    0
 Symmetry not used in FoFCou.
 Requested convergence on RMS density matrix=1.00D-08 within  32 cycles.
 Requested convergence on MAX density matrix=1.00D-06.
 Requested convergence on             energy=1.00D-06.
 No special actions if energy rises.
 Integral accuracy reduced to 1.0D-05 until final iterations.
 Initial convergence to 1.0D-05 achieved.  Increase integral accuracy.
 SCF Done:  E(RB3LYP) =  -234.635814647     A.U. after   13 cycles
            NFock= 13  Conv=0.53D-08     -V/T= 2.0102
 QCSCF skips out because SCF is already converged.
[...]

 Dipole polarizability, Alpha (input orientation).
 (esu units = cm**3 , SI units = C**2 m**2 J**-1)
 Alpha(0;0):
               (au)            (10**-24 esu)      (10**-40 SI)
   iso        0.594195D+02      0.880506D+01      0.979695D+01
   aniso      0.231968D+02      0.343741D+01      0.382463D+01
   xx         0.717378D+02      0.106305D+02      0.118280D+02
   yx        -0.231906D+01     -0.343649D+00     -0.382361D+00
   yy         0.493156D+02      0.730782D+01      0.813105D+01
   zx         0.112876D+01      0.167265D+00      0.186108D+00
   zy         0.658366D+01      0.975598D+00      0.108550D+01
   zz         0.572049D+02      0.847689D+01      0.943181D+01

 ----------------------------------------------------------------------

 Dipole orientation:
     6         -2.82916560          0.35890749         -0.02832993
     6         -1.25939762          0.20547027         -2.40605033
     6          1.24983699         -0.09086772         -2.40557171
     6          2.81876504         -0.24433925         -0.02734798
     6          1.33234300          0.61611639          2.31586680
     6         -1.34383880         -0.50234361          2.31520409
     1         -3.50141250          2.31257069          0.23247973
     1         -4.54603644         -0.78898308         -0.24753826
     1         -2.26335475          0.34265775         -4.19872071
     1          2.25449378         -0.22811758         -4.19784928
     1          4.53545255          0.90400766         -0.24562431
     1          3.49139975         -2.19787721          0.23332977
     1          1.20037047          2.68877993          2.31553477
     1          2.34766702          0.08333955          4.04279223
     1         -2.35985643          0.03001037          4.04185136
     1         -1.21197956         -2.57501345          2.31432132

 Electric dipole moment (dipole orientation):
 (Debye = 10**-18 statcoulomb cm , SI units = C m)
                  (au)            (Debye)         (10**-30 SI)
   Tot        0.895606D-01      0.227640D+00      0.759327D+00
   x          0.000000D+00      0.000000D+00      0.000000D+00
   y          0.000000D+00      0.000000D+00      0.000000D+00
   z          0.895606D-01      0.227640D+00      0.759327D+00

 Dipole polarizability, Alpha (dipole orientation).
 (esu units = cm**3 , SI units = C**2 m**2 J**-1)
 Alpha(0;0):
               (au)            (10**-24 esu)      (10**-40 SI)
   iso        0.594195D+02      0.880506D+01      0.979695D+01
   aniso      0.231968D+02      0.343741D+01      0.382463D+01
   xx         0.717201D+02      0.106278D+02      0.118250D+02
   yx        -0.267420D+01     -0.396275D+00     -0.440915D+00
   yy         0.456054D+02      0.675802D+01      0.751931D+01
   zx         0.168176D-02      0.249212D-03      0.277285D-03
   zy        -0.768714D-03     -0.113912D-03     -0.126744D-03
   zz         0.609329D+02      0.902932D+01      0.100465D+02

 ----------------------------------------------------------------------
 Unable to Open any file for archive entry.
 1|1|UNPC-SKCH-134-020|Freq|RB3LYP|6-31G(d)|C6H10|AL6323|12-Nov-2025|0|
 |#N Geom=AllCheck Guess=TCheck SCRF=Check GenChk RB3LYP/6-31G(d) Freq|
 |TS Benry DFT product opt||0,1|C,-1.4979015828,0.1638072637,-0.0845734
 056|C,-0.6852463752,-0.5276903909,-1.1528476963|C,0.6430343704,-0.6692
 407905,-1.0949101782|C,1.491740586,-0.1254277548,0.0292284474|C,0.7214
 971882,0.8829032823,0.8973134259|C,-0.6922717178,0.3724634886,1.208056
 497|H,-1.8555306822,1.1336209072,-0.4666376687|H,-2.4056998337,-0.4188
 980468,0.1257073909|H,-1.2304903495,-0.9280547184,-2.0071633435|H,1.16
 11391096,-1.2000729882,-1.893174841|H,2.3960838203,0.3438545903,-0.382
 8413757|H,1.8535763324,-0.9597315603,0.6516527351|H,0.6474933883,1.838
 6634596,0.3598125246|H,1.2730474025,1.083785404,1.8239864097|H,-1.2176
 866413,1.0684303179,1.8735283816|H,-0.6183371752,-0.5836149036,1.74499
 99067||Version=EM64W-G16RevC.01|HF=-234.6482918|RMSD=4.812e-009|RMSF=1
 .526e-006|ZeroPoint=0.1469316|Thermal=0.1524265|ETot=-234.4958653|HTot
 =-234.4949211|GTot=-234.5300001|Dipole=0.0012987,0.0439603,0.0780187|D
 ipoleDeriv=0.0885224,0.0188575,-0.0064521,0.0310938,0.1776902,-0.08564
 08,-0.0343835,-0.0659753,0.0819287,0.0710271,-0.0363248,-0.0083433,-0.
 0914841,-0.1006383,0.1468715,-0.0531167,0.1428459,0.0400889,0.0744347,
 -0.0112325,0.0369804,-0.0015648,-0.1258313,0.1270139,0.1073923,0.13026
 48,0.0619013,0.0887286,0.014294,-0.0138815,0.0449627,0.1739817,-0.0686
 984,-0.0100926,-0.0876262,0.0853251,0.0609212,-0.0120779,0.0189544,0.0
 091529,0.1375129,0.0109157,0.0195915,-0.0280983,0.142263,0.0600047,-0.
 0207574,0.0019733,-0.0113074,0.1490452,-0.0211102,-0.0159637,0.0183716
 ,0.1315275,-0.0067133,0.0558877,-0.0194391,0.1315317,-0.130151,0.05056
 61,0.0176598,0.0360728,-0.0312774,-0.1462005,-0.0813074,0.0209672,-0.1
 074093,-0.0096455,0.0024949,0.0588819,-0.0125169,0.0013778,-0.0262173,
 -0.0228059,-0.0673793,-0.0247168,0.0621546,-0.1059135,-0.0667074,-0.10
 14598,-0.0962076,-0.0223103,0.0436702,0.0515485,0.0422263,0.0369302,-0
 .1178142,0.0527658,-0.1223029,-0.0749195,-0.1453742,-0.0577323,0.06193
 88,-0.1040528,0.0051372,-0.0031472,0.0647996,0.0106778,-0.0142046,-0.0
 093471,0.0461563,-0.0383256,0.0532513,-0.0975956,0.0558132,-0.1220229,
 0.0716533,-0.0611903,0.0063788,0.0351612,0.0143388,0.0048976,-0.139585
 4,0.060231,0.0228533,0.1014231,-0.0165413,-0.0521707,-0.0360885,-0.092
 5037,-0.0279658,0.020265,-0.0536923,-0.098705,-0.074234,-0.134678,-0.0
 465813,0.0583478,0.0765022,0.0673589,-0.0381697,-0.1113551,0.0730607,-
 0.090523,-0.0818329,0.0048972,0.0059522,-0.036879,-0.0159742,-0.121100
 3,0.1134653,-0.0160132,0.071427,-0.0335605|Polar=71.7378426,-2.3190563
 ,49.3156433,1.1287627,6.5836624,57.2048848|Quadrupole=0.7688366,-0.600
 5358,-0.1683008,-0.2079302,0.1047159,0.3733223|PG=C01 [X(C6H10)]|NImag
 =0||0.54997348,0.01783361,0.54046921,-0.00672474,-0.02939483,0.4693388
 6,-0.12329531,0.02808046,0.04335941,0.83845341,0.02863452,-0.10217218,
 -0.04861048,-0.04720997,0.25043020,0.04231969,-0.04395248,-0.14870225,
 0.08201512,0.18171847,0.49146137,-0.01963314,0.00862015,0.00853091,-0.
 54255183,0.05045342,-0.02519395,0.83550652,0.01938609,0.00188910,-0.00
 054353,0.05366051,-0.07144988,-0.02630397,-0.09778287,0.26838709,0.023
 95735,-0.00358210,0.00679639,-0.01949556,-0.02649489,-0.10150959,-0.00
 838376,0.19340669,0.47642633,0.00242311,0.00028680,-0.00086312,-0.0207
 9943,-0.01005460,-0.02839520,-0.12629968,-0.02193371,-0.04774300,0.549
 63185,0.00082736,-0.00602824,0.00247006,-0.00234371,0.00750709,0.00322
 418,-0.02326655,-0.09443639,-0.04306696,0.01337222,0.51382884,0.000112
 44,0.00286587,-0.00277040,-0.01121228,0.00014507,0.00242065,-0.0478171
 6,-0.03839398,-0.15331564,-0.01379917,-0.04561793,0.49568026,-0.022750
 93,-0.01069131,-0.00421194,-0.00005728,-0.00070613,0.00086374,0.014762
 05,-0.01089708,-0.00742974,-0.10759313,0.03366052,0.02688257,0.4800706
 9,-0.00730005,-0.00231068,-0.00109926,0.00095497,0.00096007,0.00121906
 ,0.00385343,-0.00997677,-0.01106851,0.03439438,-0.12840425,-0.03792774
 ,0.00859159,0.54134951,-0.02804384,-0.01116877,0.00820968,0.00128848,0
 .00022918,0.00233237,0.01132398,-0.02084386,-0.02211356,0.02690331,-0.
 03788556,-0.11062708,0.06481013,-0.02526725,0.56935102,-0.10993461,-0.
 00534002,-0.04395491,0.01471419,0.00023872,0.01184889,-0.00010325,-0.0
 0104279,0.00019812,-0.02167179,-0.00130956,0.01168891,-0.16620089,-0.0
 3240266,0.01998155,0.47662271,-0.00499971,-0.08167678,-0.00903732,-0.0
 0838555,-0.00460213,-0.01758173,-0.00058488,0.00134696,0.00048136,0.02
 057520,0.01056121,-0.00388118,-0.03266683,-0.09573036,0.00902325,-0.04
 947530,0.58568162,-0.04465571,-0.00898867,-0.15530934,-0.01029520,-0.0
 0774634,-0.02737674,-0.00142521,0.00148826,0.00202059,0.02128228,0.006
 60490,-0.00572382,0.01943007,0.00746879,-0.08697240,-0.03973827,0.0025
 8538,0.52857862,-0.07081081,0.06673874,-0.02951629,-0.01065539,0.01881
 378,-0.00365191,0.00120991,0.00121554,0.00227025,-0.00027990,0.0008944
 6,-0.00046298,0.00083494,0.00150880,-0.00020491,-0.00519991,0.01519285
 ,-0.00629994,0.07714435,0.06611926,-0.24037861,0.07698287,0.00805698,-
 0.01189659,0.00214025,-0.00148176,-0.00055641,-0.00183930,-0.00035009,
 -0.00053091,0.00012522,0.00060085,0.00034346,-0.00017625,-0.00224046,0
 .00486422,-0.00177565,-0.07579976,0.26213061,-0.02634318,0.07168854,-0
 .07572024,0.00952020,-0.02217083,0.00998218,0.00028407,-0.00102588,-0.
 00195495,-0.00003245,-0.00123537,0.00017242,0.00147286,0.00032219,0.00
 018382,-0.00835857,0.02601984,-0.01278894,0.02891949,-0.08123201,0.086
 13119,-0.21634195,-0.11301069,0.03958208,-0.01793964,-0.00737320,0.004
 57194,0.00123064,0.00086698,0.00297412,0.00062790,-0.00069991,0.000045
 40,-0.00049082,-0.00010054,-0.00406533,-0.01399362,-0.00839555,0.00322
 030,0.00890628,0.00470060,-0.00182011,0.23773706,-0.11286189,-0.121458
 69,0.02632402,0.01658698,0.00973838,-0.00432860,0.00071004,-0.00105916
 ,-0.00163701,-0.00014836,0.00028030,-0.00039533,0.00014238,0.00041504,
 -0.00121933,-0.00167343,-0.00229721,0.00162259,-0.02492009,-0.01783101
 ,0.00645266,0.12205041,0.13121747,0.04055627,0.02700665,-0.05848897,0.
 02176676,0.01299299,-0.00473923,-0.00004287,-0.00180219,-0.00369037,0.
 00032243,-0.00007029,-0.00045311,-0.00178835,-0.00052473,-0.00581271,-
 0.02547751,-0.01527741,0.00628596,0.00933907,0.00701360,-0.00242170,-0
 .04431262,-0.02782224,0.06481429,0.01058120,0.00579122,0.01464475,-0.1
 2340086,-0.04682581,-0.10547161,-0.01499842,-0.01348042,-0.02822524,-0
 .00337011,0.00290347,0.00159649,-0.00025260,0.00040725,0.00046528,-0.0
 0225595,0.00211178,0.00195813,0.00015178,0.00012992,-0.00071029,0.0010
 2016,-0.00062335,-0.00055512,0.13213159,-0.00922519,-0.00193329,-0.010
 28770,-0.04817762,-0.08015495,-0.08879246,0.00253629,0.00493287,0.0025
 5935,0.00220821,0.00970876,-0.00582843,0.00069190,0.00008648,0.0004375
 7,0.00229410,-0.00030181,-0.00091251,-0.00005401,0.00001497,0.00092600
 ,0.00063297,0.00079651,0.00002788,0.05099114,0.07235768,-0.01151281,-0
 .00611663,-0.01431952,-0.10940059,-0.08752665,-0.22042178,0.00112281,-
 0.00143996,0.00147785,-0.00036570,-0.00479704,0.00464477,0.00032039,0.
 00034413,0.00003866,0.00400880,-0.00304267,-0.00090510,0.00032223,-0.0
 0069417,-0.00023468,-0.00008978,0.00068657,0.00077152,0.11625412,0.098
 54129,0.23085035,-0.00346928,0.00020808,-0.00318857,-0.01415391,0.0174
 0320,0.02657041,-0.11681395,0.06354784,0.09128137,0.01052913,-0.010014
 05,-0.01322312,-0.00246647,-0.00053485,-0.00284412,-0.00028660,-0.0001
 8272,-0.00057122,-0.00065892,0.00053335,0.00063701,-0.00063617,0.00043
 027,0.00064648,0.00083356,-0.00088655,0.00036493,0.12500931,0.00155147
 ,0.01068618,-0.00418354,0.00049763,0.00165823,-0.00365099,0.06623648,-
 0.10650859,-0.10534380,0.00469210,-0.00365717,-0.00714457,-0.00224921,
 0.00105039,-0.00215291,0.00008720,-0.00029299,0.00012008,-0.00134615,0
 .00092791,0.00175994,0.00109128,-0.00111042,-0.00146295,-0.00076333,-0
 .00532873,0.00380498,-0.07047117,0.10300492,-0.00159462,-0.00520253,0.
 00375965,-0.00227530,0.00033161,0.00390864,0.09445146,-0.10658553,-0.2
 0061216,0.01312126,-0.01131987,-0.01254204,-0.00403467,-0.00004940,-0.
 00204626,-0.00073813,0.00022286,0.00045397,0.00091383,-0.00053156,-0.0
 0105264,-0.00053513,0.00053745,0.00095447,0.00058702,0.00393174,-0.000
 67525,-0.10028459,0.11909782,0.20728312,0.00063025,-0.00042385,0.00055
 538,0.00113063,-0.00217861,-0.00242213,-0.01870853,-0.00785493,0.00470
 457,-0.21496296,-0.08977836,0.08002013,-0.01328939,-0.00654900,0.00558
 453,-0.00034994,0.00329333,0.00211255,0.00003783,0.00000795,-0.0000187
 0,-0.00007015,-0.00000804,-0.00000740,-0.00065956,0.00108604,-0.000668
 09,0.00103564,0.00040780,-0.00049563,0.23630049,-0.00036903,-0.0000386
 6,-0.00026830,0.00031784,-0.00143453,-0.00202089,-0.00972092,-0.004448
 47,0.00443702,-0.09051492,-0.09649901,0.04182382,0.02104699,0.00983363
 ,-0.00840845,0.00149013,-0.00343554,-0.00288616,-0.00012246,0.00008122
 ,0.00014319,0.00000847,0.00002887,0.00019728,-0.00031672,0.00080004,-0
 .00028213,0.00013974,0.00045369,-0.00017133,0.09825638,0.10454975,-0.0
 0006754,-0.00058407,-0.00013458,-0.00072144,-0.00181770,-0.00321405,-0
 .02493502,-0.01252050,0.01021226,0.07937789,0.04112630,-0.08478521,0.0
 1494637,0.00905867,-0.00655198,0.00071368,-0.00360494,-0.00210378,-0.0
 0000412,0.00008990,0.00021570,0.00001790,0.00005862,0.00018385,-0.0006
 8633,0.00168480,-0.00093275,0.00082987,0.00046259,0.00109818,-0.085663
 52,-0.04366265,0.09288596,-0.00027460,0.00088958,-0.00054399,0.0011466
 9,-0.00137415,-0.00231390,-0.01118290,0.01363207,-0.01438767,-0.071252
 61,0.06095580,-0.04180199,-0.00503245,0.01266380,-0.00915286,0.0007738
 2,0.00093841,-0.00118848,-0.00021883,-0.00000719,0.00024509,0.00004019
 ,-0.00005715,0.00011331,-0.00068589,-0.00152710,0.00072582,0.00016078,
 -0.00033187,-0.00011247,0.00899991,-0.02093298,0.01618169,0.07782722,-
 0.00015935,0.00046544,-0.00061447,-0.00105349,-0.00027590,-0.00081948,
 -0.00381188,0.01285046,-0.00680305,0.05779578,-0.18745852,0.10390120,0
 .00609377,-0.01905992,0.01166294,-0.00095276,0.00016259,0.00025114,-0.
 00020612,0.00018659,0.00006386,0.00002401,0.00007692,0.00013811,-0.000
 26030,-0.00104047,0.00054920,0.00068743,-0.00027449,0.00073784,0.00393
 521,-0.01229432,0.00934006,-0.06510375,0.20719600,0.00031347,0.0007084
 4,-0.00082479,0.00101050,-0.00167191,-0.00217223,-0.01167217,0.0170557
 9,-0.01426345,-0.04284214,0.10912505,-0.12815197,0.00642229,-0.0165218
 4,0.01094566,-0.00128931,-0.00029547,0.00042553,-0.00010041,0.00032357
 ,0.00041688,0.00000919,0.00008805,0.00021796,-0.00077012,-0.00169044,0
 .00094274,0.00024245,-0.00086257,0.00004859,-0.00335332,0.01079446,-0.
 00805262,0.04984575,-0.11468681,0.14038875,0.00184795,-0.00003326,0.00
 075458,0.00020021,0.00001227,-0.00010743,-0.00024689,-0.00100298,-0.00
 045868,-0.00346752,0.01666237,-0.00817493,-0.04989137,0.01460822,-0.01
 116019,0.00075186,-0.02957710,0.01668425,-0.00034036,0.00043554,-0.000
 45400,0.00028834,0.00042153,0.00021785,0.00011529,0.00009467,-0.000110
 38,-0.00004745,-0.00013150,0.00011489,0.00039552,-0.00008684,-0.000562
 72,-0.00107522,0.00294186,0.00278190,0.05748812,0.00076391,0.00019313,
 0.00035710,-0.00044957,-0.00003096,-0.00049942,0.00085327,0.00067709,0
 .00096761,0.00282269,-0.01941799,0.01042131,0.01506384,-0.23791843,0.1
 0675824,-0.00047538,-0.01051364,0.00611800,-0.00071478,0.00014971,-0.0
 0046486,-0.00001201,0.00033975,-0.00009887,-0.00009168,-0.00006907,-0.
 00001897,-0.00004064,0.00014614,-0.00025298,0.00014743,0.00123264,-0.0
 0007002,0.00184036,-0.00199433,-0.00311091,-0.01723157,0.25991240,-0.0
 0065597,-0.00092061,0.00059686,0.00011222,0.00013569,0.00008028,0.0005
 2666,-0.00010423,0.00112225,0.00219375,-0.01785794,0.00928664,-0.01122
 011,0.10820452,-0.11397519,0.00005991,0.00692971,-0.00437930,0.0002582
 1,-0.00000883,0.00049911,0.00004571,-0.00013188,0.00004364,-0.00002092
 ,0.00014277,-0.00001609,0.00008036,0.00029832,-0.00004907,-0.00063669,
 0.00044243,0.00113818,0.00167417,-0.00326241,-0.00132220,0.00735921,-0
 .11827188,0.12042399,-0.00520662,-0.00305173,0.00391971,-0.00010422,0.
 00047238,0.00082822,-0.00223616,0.00205286,0.00153608,0.00992091,0.003
 63422,0.01582457,-0.11325084,-0.02246492,-0.10975029,-0.01585416,-0.00
 396068,-0.02780456,0.00013240,0.00013770,0.00007381,-0.00113476,-0.000
 44376,-0.00192644,0.00018008,-0.00010951,-0.00010797,0.00065782,0.0005
 6037,0.00075864,0.00031903,-0.00065581,-0.00035793,0.00097444,-0.00055
 490,-0.00032132,-0.00122269,0.00023314,-0.00148534,0.12462510,-0.00172
 851,-0.00005980,0.00125863,0.00021757,0.00014059,0.00019061,0.00400459
 ,-0.00189468,-0.00228882,-0.01179259,-0.00580623,-0.01984366,-0.021784
 86,-0.05798874,-0.03534235,-0.00598728,-0.00243507,-0.00989748,-0.0003
 9427,0.00008319,-0.00017352,-0.00030538,0.00021620,-0.00049868,-0.0000
 8036,0.00002197,0.00001816,-0.00083739,-0.00053487,-0.00097160,0.00017
 639,0.00040811,0.00037987,-0.00073094,0.00070370,0.00038183,0.01485326
 ,0.00594545,0.02470922,0.02340290,0.06062894,0.00170907,0.00056966,0.0
 0046997,0.00047840,0.00002935,0.00011000,0.00335090,-0.00216500,-0.000
 71164,-0.00958440,-0.00252332,-0.01475049,-0.10976475,-0.03662441,-0.2
 3565041,0.00470572,0.00161236,0.00811505,0.00010038,0.00003396,0.00007
 544,0.00039532,0.00005699,0.00040569,-0.00010576,0.00018820,-0.0000641
 3,-0.00074700,-0.00063116,-0.00061158,0.00022657,0.00036265,-0.0001641
 1,-0.00004718,-0.00010757,0.00136543,-0.00797914,-0.00239130,-0.014060
 00,0.11853837,0.04205507,0.25433724,0.00985199,-0.01226660,-0.01201352
 ,-0.00244287,-0.00021548,-0.00258696,-0.00014594,-0.00045786,-0.000825
 01,-0.00527368,-0.00484123,0.00073446,-0.01512139,0.02198585,0.0182152
 8,-0.10725691,0.07915850,0.07398975,0.00100246,0.00000308,0.00064398,0
 .00032989,-0.00004266,0.00075341,0.00065975,-0.00038068,-0.00092352,0.
 00018795,0.00002915,0.00014856,-0.00108485,0.00143270,0.00141027,0.000
 13120,0.00000520,-0.00015752,0.00126525,-0.00032307,-0.00009098,0.0009
 3401,0.00047134,-0.00073263,0.11815799,0.00190103,-0.00229640,-0.00036
 918,-0.00075330,0.00095921,-0.00038839,-0.00029587,0.00003159,-0.00002
 355,-0.00228143,-0.00038128,0.00036176,-0.00657329,0.00874123,0.008429
 81,0.07948993,-0.15829210,-0.09911290,-0.00033368,0.00107090,0.0001105
 3,-0.00011361,-0.00033537,-0.00009647,0.00019149,0.00012198,-0.0002271
 1,0.00004664,-0.00013355,0.00009139,-0.00046665,0.00053705,0.00025217,
 -0.00028818,0.00014321,0.00007745,0.00072119,0.00071176,-0.00010623,0.
 00086435,0.00044265,-0.00001868,-0.08595003,0.16747796,0.01410576,-0.0
 1771055,-0.01819763,-0.00519766,-0.00049019,-0.00335902,-0.00042258,0.
 00013464,0.00026114,0.00076043,0.00111568,0.00086073,0.00293049,-0.003
 57972,-0.00379239,0.07343273,-0.09781417,-0.14132620,0.00065851,0.0005
 9286,0.00097368,-0.00026253,-0.00006700,0.00057342,0.00104719,-0.00058
 130,-0.00127007,0.00012003,-0.00007819,0.00008373,0.00008083,-0.000332
 23,0.00003498,0.00028041,-0.00014358,0.00001577,-0.00019127,-0.0000009
 1,-0.00014342,-0.00002410,0.00039061,0.00069407,-0.07918344,0.10863381
 ,0.15393408,-0.00359073,0.01636882,-0.01032974,-0.00024439,-0.00009033
 ,0.00112507,0.00021156,0.00009074,0.00002680,0.00183791,-0.00065706,-0
 .00041333,0.00072989,-0.02961627,0.01664901,-0.04975496,0.01695826,-0.
 00669875,-0.00125580,-0.00084597,-0.00405922,0.00042663,0.00043712,0.0
 0039474,-0.00005001,-0.00017466,0.00005974,0.00011856,0.00013975,-0.00
 002512,0.00027607,0.00002743,-0.00047908,-0.00033176,0.00061930,-0.000
 11923,-0.00606103,-0.00238594,0.00179983,0.00126564,0.00051554,-0.0005
 4388,-0.00119483,0.01384139,-0.00813480,0.05761724,-0.00037352,0.00465
 026,-0.00298405,0.00000027,0.00062333,-0.00015416,-0.00032295,0.000215
 20,0.00029594,0.00092833,0.00073379,-0.00061143,-0.00032313,-0.0113906
 7,0.00592374,0.01729957,-0.24303899,0.10506057,-0.00047286,0.00134076,
 -0.00118430,0.00063617,0.00098241,0.00027732,-0.00008430,-0.00001294,0
 .00020100,-0.00002919,-0.00008666,0.00013408,-0.00005108,0.00022554,-0
 .00019308,-0.00056671,0.00061303,0.00028531,-0.00268765,0.00063635,-0.
 00019866,-0.00011659,0.00012860,-0.00044680,0.00139177,-0.01879884,0.0
 0993025,-0.01522814,0.26317882,-0.00347564,0.02478207,-0.01470370,-0.0
 0095306,0.00094664,0.00119942,0.00030192,-0.00035673,-0.00014544,-0.00
 033616,0.00070811,0.00005429,0.00037066,0.00604548,-0.00351923,-0.0070
 8162,0.10366013,-0.10899410,-0.00254142,-0.00104446,-0.00447726,0.0002
 2354,-0.00022556,0.00135528,-0.00000762,-0.00034676,0.00011346,0.00008
 572,-0.00003305,-0.00000136,-0.00001911,-0.00016869,0.00016996,0.00048
 232,-0.00020698,0.00001996,0.00128608,0.00055786,0.00075431,0.00029856
 ,-