 Default is to use a total of   8 processors:
                                8 via shared-memory
                                1 via Linda
 Entering Link 1 = C:\G16W\l1.exe PID=     11188.
  
 Copyright (c) 1988-2019, Gaussian, Inc.  All Rights Reserved.
  
 This is part of the Gaussian(R) 16 program.  It is based on
 the Gaussian(R) 09 system (copyright 2009, Gaussian, Inc.),
 the Gaussian(R) 03 system (copyright 2003, Gaussian, Inc.),
 the Gaussian(R) 98 system (copyright 1998, Gaussian, Inc.),
 the Gaussian(R) 94 system (copyright 1995, Gaussian, Inc.),
 the Gaussian 92(TM) system (copyright 1992, Gaussian, Inc.),
 the Gaussian 90(TM) system (copyright 1990, Gaussian, Inc.),
 the Gaussian 88(TM) system (copyright 1988, Gaussian, Inc.),
 the Gaussian 86(TM) system (copyright 1986, Carnegie Mellon
 University), and the Gaussian 82(TM) system (copyright 1983,
 Carnegie Mellon University). Gaussian is a federally registered
 trademark of Gaussian, Inc.
  
 This software contains proprietary and confidential information,
 including trade secrets, belonging to Gaussian, Inc.
  
 This software is provided under written license and may be
 used, copied, transmitted, or stored only in accord with that
 written license.
  
 The following legend is applicable only to US Government
 contracts under FAR:
  
                    RESTRICTED RIGHTS LEGEND
  
 Use, reproduction and disclosure by the US Government is
 subject to restrictions as set forth in subparagraphs (a)
 and (c) of the Commercial Computer Software - Restricted
 Rights clause in FAR 52.227-19.
  
 Gaussian, Inc.
 340 Quinnipiac St., Bldg. 40, Wallingford CT 06492
  
  
 ---------------------------------------------------------------
 Warning -- This program may not be used in any manner that
 competes with the business of Gaussian, Inc. or will provide
 assistance to any competitor of Gaussian, Inc.  The licensee
 of this program is prohibited from giving any competitor of
 Gaussian, Inc. access to this program.  By using this program,
 the user acknowledges that Gaussian, Inc. is engaged in the
 business of creating and licensing software in the field of
 computational chemistry and represents and warrants to the
 licensee that it is not a competitor of Gaussian, Inc. and that
 it will not use this program in any manner prohibited above.
 ---------------------------------------------------------------
  

 Cite this work as:
 Gaussian 16, Revision C.01,
 M. J. Frisch, G. W. Trucks, H. B. Schlegel, G. E. Scuseria, 
 M. A. Robb, J. R. Cheeseman, G. Scalmani, V. Barone, 
 G. A. Petersson, H. Nakatsuji, X. Li, M. Caricato, A. V. Marenich, 
 J. Bloino, B. G. Janesko, R. Gomperts, B. Mennucci, H. P. Hratchian, 
 J. V. Ortiz, A. F. Izmaylov, J. L. Sonnenberg, D. Williams-Young, 
 F. Ding, F. Lipparini, F. Egidi, J. Goings, B. Peng, A. Petrone, 
 T. Henderson, D. Ranasinghe, V. G. Zakrzewski, J. Gao, N. Rega, 
 G. Zheng, W. Liang, M. Hada, M. Ehara, K. Toyota, R. Fukuda, 
 J. Hasegawa, M. Ishida, T. Nakajima, Y. Honda, O. Kitao, H. Nakai, 
 T. Vreven, K. Throssell, J. A. Montgomery, Jr., J. E. Peralta, 
 F. Ogliaro, M. J. Bearpark, J. J. Heyd, E. N. Brothers, K. N. Kudin, 
 V. N. Staroverov, T. A. Keith, R. Kobayashi, J. Normand, 
 K. Raghavachari, A. P. Rendell, J. C. Burant, S. S. Iyengar, 
 J. Tomasi, M. Cossi, J. M. Millam, M. Klene, C. Adamo, R. Cammi, 
 J. W. Ochterski, R. L. Martin, K. Morokuma, O. Farkas, 
 J. B. Foresman, and D. J. Fox, Gaussian, Inc., Wallingford CT, 2019.
 
 ******************************************
 Gaussian 16:  EM64W-G16RevC.01 30-May-2019
                12-Nov-2025 
 ******************************************
 %chk=C:\Users\al6323\OneDrive - Imperial College London\Desktop\TSR202511112\TS_
 guess_opt_TS(Berny)_IRS_PM6.chk
 Default route: MaxDisk=10GB
 ------------------------------------------------
 # irc=(calcall,maxpoints=100) pm6 nosymm scf=xqc
 ------------------------------------------------
 1/10=4,18=10,26=1,38=1,42=100,44=3,71=1,172=1/1,23;
 2/12=2,15=1,17=6,18=5,29=1,40=1/2;
 3/5=2,25=1,41=3900000,71=2,140=1/1,2,3;
 4/35=1/1;
 5/5=2,8=3,13=1,35=1,38=5/2,8;
 8/6=4,10=90,11=11/1;
 11/6=1,8=1,9=11,15=111,16=1,31=1/1,2,10;
 10/6=1,13=1,31=1/2;
 6/7=2,8=2,9=2,10=2,18=1,28=1/1;
 7/10=1,25=1,30=1/1,2,3,16;
 1/10=4,18=10,26=1,42=100,44=3,71=1/23(2);
 2/15=1,29=1/2;
 99/5=20/99;
 2/15=1,29=1/2;
 3/5=2,25=1,41=3900000,71=2,135=20,140=1/1,2,3;
 4/5=5,16=3,35=1/1;
 5/5=2,8=3,13=1,35=1,38=5/2,8;
 8/6=4,10=90,11=11/1;
 11/6=1,8=1,9=11,15=111,16=1,31=1/1,2,10;
 10/6=1,13=1,31=1/2;
 7/10=1,25=1,30=1/1,2,3,16;
 1/10=4,18=10,26=1,42=100,44=3,71=1/23(-8);
 2/15=1,29=1/2;
 6/7=2,8=2,9=2,10=2,18=1,19=2,28=1/1;
 99/5=20/99;
 ------------
 TS Benry PM6
 ------------
 Symbolic Z-matrix:
 Charge =  0 Multiplicity = 1
 C                    -0.69387   0.92512   0.0488 
 C                     0.04229  -0.17529  -0.35127 
 C                     1.44943  -0.1777   -0.33577 
 C                     2.18038   0.92017   0.08049 
 C                     1.4133    1.23661   2.19574 
 C                     0.02733   1.23886   2.18041 
 H                    -0.32135   1.92944  -0.11735 
 H                    -1.77537   0.85406   0.1355 
 H                    -0.46794  -1.13014  -0.46968 
 H                     1.95885  -1.1343   -0.443 
 H                     1.81508   1.92576  -0.09373 
 H                     3.25947   0.84539   0.19094 
 H                     1.95678   2.17435   2.26844 
 H                     1.951     0.36366   2.54829 
 H                    -0.51456   2.17836   2.24123 
 H                    -0.52081   0.36764   2.52096 
 
 IRC-IRC-IRC-IRC-IRC-IRC-IRC-IRC-IRC-IRC-IRC-IRC-IRC-IRC-IRC-IRC-IRC-IRC
 ------------------------------------------------------------------------
 INPUT DATA FOR L123
 ------------------------------------------------------------------------
 GENERAL PARAMETERS:
 Follow reaction path in both directions.
 Maximum points per path      = 100
 Step size                    =   0.100 bohr
 Integration scheme           = HPC                                 
    Redo corrector integration= Yes                                 
    DWI Weight Power          =  2
    DWI will use Hessian update vectors when possible.
    Max correction cycles     =  20
 Initial Hessian              = CalcFC
 Hessian evaluation           = Analytic at all predictor steps
                              = Update at all corrector steps
 Hessian updating method      = Bofill                              
 ------------------------------------------------------------------------
 IRC-IRC-IRC-IRC-IRC-IRC-IRC-IRC-IRC-IRC-IRC-IRC-IRC-IRC-IRC-IRC-IRC-IRC
                          Input orientation:                          
 ---------------------------------------------------------------------
 Center     Atomic      Atomic             Coordinates (Angstroms)
 Number     Number       Type             X           Y           Z
 ---------------------------------------------------------------------
      1          6           0       -0.693868    0.925122    0.048805
      2          6           0        0.042289   -0.175287   -0.351271
      3          6           0        1.449427   -0.177699   -0.335774
      4          6           0        2.180384    0.920174    0.080485
      5          6           0        1.413301    1.236610    2.195741
      6          6           0        0.027334    1.238856    2.180413
      7          1           0       -0.321352    1.929435   -0.117355
      8          1           0       -1.775374    0.854063    0.135505
      9          1           0       -0.467937   -1.130136   -0.469678
     10          1           0        1.958848   -1.134297   -0.442998
     11          1           0        1.815077    1.925763   -0.093733
     12          1           0        3.259471    0.845394    0.190936
     13          1           0        1.956776    2.174351    2.268441
     14          1           0        1.950996    0.363656    2.548291
     15          1           0       -0.514557    2.178357    2.241233
     16          1           0       -0.520813    0.367640    2.520963
 ---------------------------------------------------------------------
                    Distance matrix (angstroms):
                    1          2          3          4          5
     1  C    0.000000
     2  C    1.383072   0.000000
     3  C    2.440866   1.407225   0.000000
     4  C    2.874431   2.440880   1.383074   0.000000
     5  C    3.024321   3.218757   2.900024   2.272191   0.000000
     6  C    2.272072   2.899905   3.218722   3.024381   1.386055
     7  H    1.083984   2.148676   2.761047   2.704891   2.973120
     8  H    1.087301   2.144857   3.418476   3.956693   3.815569
     9  H    2.131656   1.089077   2.145076   3.394120   4.030509
    10  H    3.394109   2.145067   1.089076   2.131657   3.589118
    11  H    2.704885   2.761071   2.148682   1.083979   2.424468
    12  H    3.956696   3.418484   2.144855   1.087299   2.753295
    13  H    3.676039   4.006114   3.545627   2.531820   1.086282
    14  H    3.682116   3.512988   2.976990   2.540157   1.084184
    15  H    2.531698   3.545532   4.006145   3.676216   2.146065
    16  H    2.540138   2.976841   3.512860   3.682077   2.145152
                    6          7          8          9         10
     6  C    0.000000
     7  H    2.424503   0.000000
     8  H    2.753084   1.826073   0.000000
     9  H    3.588927   3.083277   2.452078   0.000000
    10  H    4.030495   3.832990   4.269972   2.426935   0.000000
    11  H    2.973148   2.136564   3.753989   3.833016   3.083282
    12  H    3.815697   3.753996   5.035158   4.269976   2.452075
    13  H    2.146077   3.307850   4.496834   4.929114   4.277740
    14  H    2.145178   3.836783   4.466304   4.146178   3.345406
    15  H    1.086281   2.379544   2.788818   4.277539   4.929149
    16  H    1.084185   3.072411   2.738785   3.345156   4.146035
                   11         12         13         14         15
    11  H    0.000000
    12  H    1.826063   0.000000
    13  H    2.379441   2.789116   0.000000
    14  H    3.072287   2.738850   1.832203   0.000000
    15  H    3.308031   4.497088   2.471486   3.076748   0.000000
    16  H    3.836765   4.466299   3.076754   2.471963   1.832207
                   16
    16  H    0.000000
 Symmetry turned off by external request.
 Stoichiometry    C6H10
 Framework group  C1[X(C6H10)]
 Deg. of freedom    42
 Full point group                 C1      NOp   1
 Rotational constants (GHZ):           4.3402277           3.4582525           2.2555100
 Standard basis: VSTO-6G (5D, 7F)
    34 basis functions,   204 primitive gaussians,    34 cartesian basis functions
    17 alpha electrons       17 beta electrons
       nuclear repulsion energy       141.7694447057 Hartrees.
 Integral buffers will be    131072 words long.
 Regular integral format.
 Two-electron integral symmetry is turned off.
 Do NDO integrals.
 One-electron integrals computed using PRISM.
 NBasis=    34 RedAO= F EigKep=  0.00D+00  NBF=    34
 NBsUse=    34 1.00D-04 EigRej=  0.00D+00 NBFU=    34
 Simple Huckel Guess.
 Keep J ints in memory in canonical form, NReq=862294.
 Overlap will be assumed to be unity.
 Requested convergence on RMS density matrix=1.00D-08 within  32 cycles.
 Requested convergence on MAX density matrix=1.00D-06.
 Requested convergence on             energy=1.00D-06.
 No special actions if energy rises.
 SCF Done:  E(RPM6) =  0.113900752696     A.U. after   15 cycles
            NFock= 14  Conv=0.87D-08     -V/T= 1.0023
 QCSCF skips out because SCF is already converged.
 Range of M.O.s used for correlation:     1    34
 NBasis=    34 NAE=    17 NBE=    17 NFC=     0 NFV=     0
 NROrb=     34 NOA=    17 NOB=    17 NVA=    17 NVB=    17
 Symmetrizing basis deriv contribution to polar:
 IMax=3 JMax=2 DiffMx= 0.00D+00
 G2DrvN: will do    17 centers at a time, making    1 passes.
 Calling FoFCou, ICntrl=  3107 FMM=F I1Cent=   0 AccDes= 0.00D+00.
 End of G2Drv F.D. properties file   721 does not exist.
 End of G2Drv F.D. properties file   722 does not exist.
 End of G2Drv F.D. properties file   788 does not exist.
          IDoAtm=1111111111111111
          Differentiating once with respect to nuclear coordinates.
          Electric field/nuclear overlap derivatives assumed to be zero.
 Keep J ints in memory in canonical form, NReq=863961.
          There are    51 degrees of freedom in the 1st order CPHF.  IDoFFX=5 NUNeed=    51.
 LinEq1:  Iter=  0 NonCon=    48 RMS=1.63D-02 Max=1.30D-01 NDo=    48
 AX will form    51 AO Fock derivatives at one time.
 LinEq1:  Iter=  1 NonCon=    48 RMS=2.72D-03 Max=3.12D-02 NDo=    51
 LinEq1:  Iter=  2 NonCon=    48 RMS=4.78D-04 Max=4.76D-03 NDo=    51
 LinEq1:  Iter=  3 NonCon=    48 RMS=8.67D-05 Max=6.25D-04 NDo=    51
 LinEq1:  Iter=  4 NonCon=    48 RMS=1.44D-05 Max=1.26D-04 NDo=    51
 LinEq1:  Iter=  5 NonCon=    48 RMS=2.43D-06 Max=2.45D-05 NDo=    51
 LinEq1:  Iter=  6 NonCon=    48 RMS=4.39D-07 Max=3.60D-06 NDo=    51
 LinEq1:  Iter=  7 NonCon=    46 RMS=8.36D-08 Max=9.63D-07 NDo=    51
 LinEq1:  Iter=  8 NonCon=    10 RMS=1.77D-08 Max=1.52D-07 NDo=    51
 LinEq1:  Iter=  9 NonCon=     0 RMS=2.87D-09 Max=1.36D-08 NDo=    10
 Linear equations converged to 1.000D-08 1.000D-07 after     9 iterations.
 End of Minotr F.D. properties file   721 does not exist.
 End of Minotr F.D. properties file   722 does not exist.
 End of Minotr F.D. properties file   788 does not exist.

 **********************************************************************

            Population analysis using the SCF Density.

 **********************************************************************

 Alpha  occ. eigenvalues --   -1.04234  -0.95558  -0.91977  -0.80506  -0.74632
 Alpha  occ. eigenvalues --   -0.65727  -0.61691  -0.58282  -0.53238  -0.50981
 Alpha  occ. eigenvalues --   -0.50305  -0.45551  -0.45204  -0.44167  -0.43244
 Alpha  occ. eigenvalues --   -0.33536  -0.32561
 Alpha virt. eigenvalues --    0.01125   0.03206   0.09048   0.18448   0.19223
 Alpha virt. eigenvalues --    0.21012   0.21154   0.21721   0.21800   0.22489
 Alpha virt. eigenvalues --    0.23032   0.23518   0.23774   0.23960   0.24321
 Alpha virt. eigenvalues --    0.24543   0.24943
          Condensed to atoms (all electrons):
               1          2          3          4          5          6
     1  C    4.275769   0.000000   0.000000   0.000000   0.000000   0.000000
     2  C    0.000000   4.144857   0.000000   0.000000   0.000000   0.000000
     3  C    0.000000   0.000000   4.144835   0.000000   0.000000   0.000000
     4  C    0.000000   0.000000   0.000000   4.275796   0.000000   0.000000
     5  C    0.000000   0.000000   0.000000   0.000000   4.280031   0.000000
     6  C    0.000000   0.000000   0.000000   0.000000   0.000000   4.280026
     7  H    0.000000   0.000000   0.000000   0.000000   0.000000   0.000000
     8  H    0.000000   0.000000   0.000000   0.000000   0.000000   0.000000
     9  H    0.000000   0.000000   0.000000   0.000000   0.000000   0.000000
    10  H    0.000000   0.000000   0.000000   0.000000   0.000000   0.000000
    11  H    0.000000   0.000000   0.000000   0.000000   0.000000   0.000000
    12  H    0.000000   0.000000   0.000000   0.000000   0.000000   0.000000
    13  H    0.000000   0.000000   0.000000   0.000000   0.000000   0.000000
    14  H    0.000000   0.000000   0.000000   0.000000   0.000000   0.000000
    15  H    0.000000   0.000000   0.000000   0.000000   0.000000   0.000000
    16  H    0.000000   0.000000   0.000000   0.000000   0.000000   0.000000
               7          8          9         10         11         12
     1  C    0.000000   0.000000   0.000000   0.000000   0.000000   0.000000
     2  C    0.000000   0.000000   0.000000   0.000000   0.000000   0.000000
     3  C    0.000000   0.000000   0.000000   0.000000   0.000000   0.000000
     4  C    0.000000   0.000000   0.000000   0.000000   0.000000   0.000000
     5  C    0.000000   0.000000   0.000000   0.000000   0.000000   0.000000
     6  C    0.000000   0.000000   0.000000   0.000000   0.000000   0.000000
     7  H    0.850826   0.000000   0.000000   0.000000   0.000000   0.000000
     8  H    0.000000   0.864067   0.000000   0.000000   0.000000   0.000000
     9  H    0.000000   0.000000   0.864148   0.000000   0.000000   0.000000
    10  H    0.000000   0.000000   0.000000   0.864151   0.000000   0.000000
    11  H    0.000000   0.000000   0.000000   0.000000   0.850825   0.000000
    12  H    0.000000   0.000000   0.000000   0.000000   0.000000   0.864066
    13  H    0.000000   0.000000   0.000000   0.000000   0.000000   0.000000
    14  H    0.000000   0.000000   0.000000   0.000000   0.000000   0.000000
    15  H    0.000000   0.000000   0.000000   0.000000   0.000000   0.000000
    16  H    0.000000   0.000000   0.000000   0.000000   0.000000   0.000000
              13         14         15         16
     1  C    0.000000   0.000000   0.000000   0.000000
     2  C    0.000000   0.000000   0.000000   0.000000
     3  C    0.000000   0.000000   0.000000   0.000000
     4  C    0.000000   0.000000   0.000000   0.000000
     5  C    0.000000   0.000000   0.000000   0.000000
     6  C    0.000000   0.000000   0.000000   0.000000
     7  H    0.000000   0.000000   0.000000   0.000000
     8  H    0.000000   0.000000   0.000000   0.000000
     9  H    0.000000   0.000000   0.000000   0.000000
    10  H    0.000000   0.000000   0.000000   0.000000
    11  H    0.000000   0.000000   0.000000   0.000000
    12  H    0.000000   0.000000   0.000000   0.000000
    13  H    0.862759   0.000000   0.000000   0.000000
    14  H    0.000000   0.857542   0.000000   0.000000
    15  H    0.000000   0.000000   0.862756   0.000000
    16  H    0.000000   0.000000   0.000000   0.857544
 Mulliken charges:
               1
     1  C   -0.275769
     2  C   -0.144857
     3  C   -0.144835
     4  C   -0.275796
     5  C   -0.280031
     6  C   -0.280026
     7  H    0.149174
     8  H    0.135933
     9  H    0.135852
    10  H    0.135849
    11  H    0.149175
    12  H    0.135934
    13  H    0.137241
    14  H    0.142458
    15  H    0.137244
    16  H    0.142456
 Sum of Mulliken charges =   0.00000
 Mulliken charges with hydrogens summed into heavy atoms:
               1
     1  C    0.009337
     2  C   -0.009005
     3  C   -0.008986
     4  C    0.009313
     5  C   -0.000333
     6  C   -0.000326
 APT charges:
               1
     1  C   -0.275769
     2  C   -0.144857
     3  C   -0.144835
     4  C   -0.275796
     5  C   -0.280031
     6  C   -0.280026
     7  H    0.149174
     8  H    0.135933
     9  H    0.135852
    10  H    0.135849
    11  H    0.149175
    12  H    0.135934
    13  H    0.137241
    14  H    0.142458
    15  H    0.137244
    16  H    0.142456
 Sum of APT charges =   0.00000
 APT charges with hydrogens summed into heavy atoms:
               1
     1  C    0.009337
     2  C   -0.009005
     3  C   -0.008986
     4  C    0.009313
     5  C   -0.000333
     6  C   -0.000326
 Charge=              0.0000 electrons
 Dipole moment (field-independent basis, Debye):
    X=             -0.0039    Y=              0.2771    Z=              0.3849  Tot=              0.4743
 N-N= 1.417694447057D+02 E-N=-2.122466691853D+02  KE=-5.043653656424D+01
  Exact polarizability:       0.000       0.000       0.000       0.000       0.000       0.000
 Approx polarizability:      60.604      -0.197      39.285       0.353      14.684      30.989
 Calling FoFJK, ICntrl=    100127 FMM=F ISym2X=0 I1Cent= 0 IOpClX= 0 NMat=1 NMatS=1 NMatT=0.
 -------------------------------------------------------------------
 Center     Atomic                   Forces (Hartrees/Bohr)
 Number     Number              X              Y              Z
 -------------------------------------------------------------------
      1        6           0.004611872   -0.017449092   -0.028502427
      2        6          -0.032588509    0.018178878    0.016653950
      3        6           0.032279786    0.018069174    0.017368922
      4        6          -0.004047170   -0.017437821   -0.028602554
      5        6          -0.035478184    0.003244414    0.017264037
      6        6           0.035103606    0.003128461    0.018053786
      7        1          -0.000252937   -0.000199693    0.007005683
      8        1           0.004488142    0.001440620    0.004555441
      9        1          -0.000112842   -0.001636755   -0.001885531
     10        1           0.000149956   -0.001637548   -0.001881895
     11        1           0.000097169   -0.000199772    0.007008691
     12        1          -0.004582502    0.001455719    0.004458644
     13        1           0.001156246   -0.004423977   -0.007264263
     14        1           0.001529761    0.000940671   -0.008455063
     15        1          -0.001011903   -0.004418911   -0.007291400
     16        1          -0.001342490    0.000945631   -0.008486020
 -------------------------------------------------------------------
 Cartesian Forces:  Max     0.035478184 RMS     0.013878628
 IRC-IRC-IRC-IRC-IRC-IRC-IRC-IRC-IRC-IRC-IRC-IRC-IRC-IRC-IRC-IRC-IRC-IRC
          ******** Start new reaction path calculation ********
 Supplied step size of   0.1000 bohr.
    Integration on MW PES will use step size of   0.2867 sqrt(amu)*bohr.
 Point Number:   0          Path Number:   1
 Calculating another point on the path.
 IRC-IRC-IRC-IRC-IRC-IRC-IRC-IRC-IRC-IRC-IRC-IRC-IRC-IRC-IRC-IRC-IRC-IRC
                          Input orientation:                          
 ---------------------------------------------------------------------
 Center     Atomic      Atomic             Coordinates (Angstroms)
 Number     Number       Type             X           Y           Z
 ---------------------------------------------------------------------
      1          6           0       -1.424073    0.246307   -0.598384
      2          6           0       -0.690249   -0.858612   -1.015203
      3          6           0        0.709542   -0.861012   -0.999785
      4          6           0        1.437814    0.241380   -0.566843
      5          6           0        0.681875    0.549419    1.508452
      6          6           0       -0.713162    0.551683    1.493022
      7          1           0       -1.057419    1.248879   -0.792578
      8          1           0       -2.505766    0.172575   -0.513232
      9          1           0       -1.207074   -1.808837   -1.139633
     10          1           0        1.225708   -1.813008   -1.112881
     11          1           0        1.078978    1.245208   -0.768964
     12          1           0        2.517111    0.163928   -0.457929
     13          1           0        1.218326    1.490176    1.601101
     14          1           0        1.212418   -0.319627    1.882840
     15          1           0       -1.248457    1.494177    1.573952
     16          1           0       -1.254629   -0.315648    1.855562
 ---------------------------------------------------------------------
                    Distance matrix (angstroms):
                    1          2          3          4          5
     1  C    0.000000
     2  C    1.390353   0.000000
     3  C    2.437128   1.399878   0.000000
     4  C    2.862065   2.437142   1.390355   0.000000
     5  C    2.994270   3.199080   2.877731   2.230063   0.000000
     6  C    2.229939   2.877612   3.199044   2.994333   1.395124
     7  H    1.085033   2.150789   2.759842   2.700407   2.968018
     8  H    1.087542   2.147423   3.412220   3.944545   3.793452
     9  H    2.136271   1.088815   2.142743   3.395130   4.017693
    10  H    3.395119   2.142733   1.088814   2.136272   3.570463
    11  H    2.700401   2.759866   2.150796   1.085028   2.414215
    12  H    3.944546   3.412228   2.147420   1.087540   2.717231
    13  H    3.656121   4.000564   3.542818   2.511504   1.086916
    14  H    3.664402   3.508461   2.975821   2.523188   1.084842
    15  H    2.511386   3.542730   4.000600   3.656304   2.150126
    16  H    2.523164   2.975673   3.508333   3.664366   2.149157
                    6          7          8          9         10
     6  C    0.000000
     7  H    2.414242   0.000000
     8  H    2.717022   1.825971   0.000000
     9  H    3.570277   3.080985   2.450505   0.000000
    10  H    4.017675   3.832808   4.269195   2.432933   0.000000
    11  H    2.968050   2.136531   3.750511   3.832834   3.080990
    12  H    3.793576   3.750516   5.023189   4.269200   2.450502
    13  H    2.150139   3.311638   4.480552   4.927238   4.275136
    14  H    2.149185   3.843206   4.450654   4.148136   3.347344
    15  H    1.086916   2.386866   2.771965   4.274945   4.927275
    16  H    1.084843   3.082091   2.723030   3.347099   4.147990
                   11         12         13         14         15
    11  H    0.000000
    12  H    1.825961   0.000000
    13  H    2.386763   2.772252   0.000000
    14  H    3.081976   2.723094   1.831611   0.000000
    15  H    3.311826   4.480804   2.466936   3.072654   0.000000
    16  H    3.843193   4.450646   3.072663   2.467202   1.831614
                   16
    16  H    0.000000
 Symmetry turned off by external request.
 Stoichiometry    C6H10
 Framework group  C1[X(C6H10)]
 Deg. of freedom    42
 Full point group                 C1      NOp   1
 Rotational constants (GHZ):           4.3630487           3.5122008           2.2816814
 Standard basis: VSTO-6G (5D, 7F)
    34 basis functions,   204 primitive gaussians,    34 cartesian basis functions
    17 alpha electrons       17 beta electrons
       nuclear repulsion energy       142.0302901250 Hartrees.
 Integral buffers will be    131072 words long.
 Regular integral format.
 Two-electron integral symmetry is turned off.
 Do NDO integrals.
 One-electron integrals computed using PRISM.
 NBasis=    34 RedAO= F EigKep=  0.00D+00  NBF=    34
 NBsUse=    34 1.00D-04 EigRej=  0.00D+00 NBFU=    34
 Initial guess from the checkpoint file:  "C:\Users\al6323\OneDrive - Imperial College London\Desktop\TSR202511112\TS_guess_opt_TS(Berny)_IRS_PM6.chk"
 B after Tr=    -1.391193   -1.290181   -1.258663
         Rot=    1.000000   -0.000037    0.000000    0.000000 Ang=   0.00 deg.
 Keep J ints in memory in canonical form, NReq=862294.
 Overlap will be assumed to be unity.
 Requested convergence on RMS density matrix=1.00D-08 within  32 cycles.
 Requested convergence on MAX density matrix=1.00D-06.
 Requested convergence on             energy=1.00D-06.
 No special actions if energy rises.
 SCF Done:  E(RPM6) =  0.117840802842     A.U. after   14 cycles
            NFock= 13  Conv=0.27D-08     -V/T= 1.0023
 QCSCF skips out because SCF is already converged.
 Range of M.O.s used for correlation:     1    34
 NBasis=    34 NAE=    17 NBE=    17 NFC=     0 NFV=     0
 NROrb=     34 NOA=    17 NOB=    17 NVA=    17 NVB=    17
 Symmetrizing basis deriv contribution to polar:
 IMax=3 JMax=2 DiffMx= 0.00D+00
 G2DrvN: will do    17 centers at a time, making    1 passes.
 Calling FoFCou, ICntrl=  3107 FMM=F I1Cent=   0 AccDes= 0.00D+00.
 End of G2Drv F.D. properties file   721 does not exist.
 End of G2Drv F.D. properties file   722 does not exist.
 End of G2Drv F.D. properties file   788 does not exist.
          IDoAtm=1111111111111111
          Differentiating once with respect to nuclear coordinates.
          Electric field/nuclear overlap derivatives assumed to be zero.
 Keep J ints in memory in canonical form, NReq=863961.
          There are    51 degrees of freedom in the 1st order CPHF.  IDoFFX=5 NUNeed=    51.
 LinEq1:  Iter=  0 NonCon=    48 RMS=1.65D-02 Max=1.31D-01 NDo=    48
 AX will form    51 AO Fock derivatives at one time.
 LinEq1:  Iter=  1 NonCon=    48 RMS=2.98D-03 Max=3.45D-02 NDo=    51
 LinEq1:  Iter=  2 NonCon=    48 RMS=5.36D-04 Max=5.25D-03 NDo=    51
 LinEq1:  Iter=  3 NonCon=    48 RMS=1.03D-04 Max=7.76D-04 NDo=    51
 LinEq1:  Iter=  4 NonCon=    48 RMS=1.75D-05 Max=1.53D-04 NDo=    51
 LinEq1:  Iter=  5 NonCon=    48 RMS=2.43D-06 Max=2.18D-05 NDo=    51
 LinEq1:  Iter=  6 NonCon=    48 RMS=4.99D-07 Max=3.95D-06 NDo=    51
 LinEq1:  Iter=  7 NonCon=    46 RMS=1.04D-07 Max=1.26D-06 NDo=    51
 LinEq1:  Iter=  8 NonCon=    12 RMS=2.43D-08 Max=2.17D-07 NDo=    51
 LinEq1:  Iter=  9 NonCon=     0 RMS=3.75D-09 Max=2.03D-08 NDo=    12
 Linear equations converged to 1.000D-08 1.000D-07 after     9 iterations.
 End of Minotr F.D. properties file   721 does not exist.
 End of Minotr F.D. properties file   722 does not exist.
 End of Minotr F.D. properties file   788 does not exist.
 Calling FoFJK, ICntrl=    100127 FMM=F ISym2X=0 I1Cent= 0 IOpClX= 0 NMat=1 NMatS=1 NMatT=0.
 -------------------------------------------------------------------
 Center     Atomic                   Forces (Hartrees/Bohr)
 Number     Number              X              Y              Z
 -------------------------------------------------------------------
      1        6           0.005948967   -0.015372070   -0.022554033
      2        6          -0.030294280    0.017143719    0.016856107
      3        6           0.029978121    0.017041986    0.017520675
      4        6          -0.005507918   -0.015355719   -0.022686115
      5        6          -0.032402123    0.002071884    0.011132355
      6        6           0.032159484    0.001966430    0.011854967
      7        1          -0.000378343   -0.000287939    0.006612573
      8        1           0.004580116    0.001470527    0.004797505
      9        1          -0.000171595   -0.001512340   -0.002050861
     10        1           0.000212757   -0.001513372   -0.002045759
     11        1           0.000230901   -0.000288462    0.006618310
     12        1          -0.004679736    0.001485983    0.004698749
     13        1           0.001033031   -0.004473455   -0.007086562
     14        1           0.001392822    0.001043561   -0.008264520
     15        1          -0.000892691   -0.004468817   -0.007110826
     16        1          -0.001209514    0.001048085   -0.008292564
 -------------------------------------------------------------------
 Cartesian Forces:  Max     0.032402123 RMS     0.012406621
 IRC-IRC-IRC-IRC-IRC-IRC-IRC-IRC-IRC-IRC-IRC-IRC-IRC-IRC-IRC-IRC-IRC-IRC
 Pt  1 Step number   1 out of a maximum of  20
 Modified Bulirsch-Stoer Extrapolation Cycles:
    EPS =    0.000010000000000
      PEZero:  N= 2 I= 1 D=  7.47D-04 Err=  6.49D-04
      PEZero:  N= 3 I= 2 D=  7.47D-04 Err=  4.32D-04
      PEZero:  N= 3 I= 1 D=  1.49D-03 Err=  1.10D-06
 Maximum DWI energy   std dev =  0.000075142 at pt    -1
 Maximum DWI gradient std dev =  0.025125735 at pt    -1
 CORRECTOR INTEGRATION CONVERGENCE:
   Recorrection delta-x convergence threshold:    0.010000
   Delta-x Convergence NOT Met
 IRC-IRC-IRC-IRC-IRC-IRC-IRC-IRC-IRC-IRC-IRC-IRC-IRC-IRC-IRC-IRC-IRC-IRC
                          Input orientation:                          
 ---------------------------------------------------------------------
 Center     Atomic      Atomic             Coordinates (Angstroms)
 Number     Number       Type             X           Y           Z
 ---------------------------------------------------------------------
      1          6           0       -1.426241    0.241183   -0.613198
      2          6           0       -0.697737   -0.855323   -1.013190
      3          6           0        0.716996   -0.857748   -0.997608
      4          6           0        1.440289    0.236247   -0.581606
      5          6           0        0.673017    0.552079    1.522260
      6          6           0       -0.704600    0.554313    1.507025
      7          1           0       -1.057231    1.247710   -0.772087
      8          1           0       -2.501941    0.174927   -0.511345
      9          1           0       -1.205066   -1.813092   -1.141403
     10          1           0        1.223728   -1.817257   -1.114696
     11          1           0        1.078333    1.244040   -0.748480
     12          1           0        2.513253    0.166292   -0.456122
     13          1           0        1.222961    1.483084    1.585306
     14          1           0        1.217501   -0.318930    1.863768
     15          1           0       -1.252770    1.487100    1.558047
     16          1           0       -1.259291   -0.314935    1.836385
 ---------------------------------------------------------------------
                    Distance matrix (angstroms):
                    1          2          3          4          5
     1  C    0.000000
     2  C    1.375876   0.000000
     3  C    2.439033   1.414821   0.000000
     4  C    2.866708   2.439046   1.375876   0.000000
     5  C    3.010601   3.207530   2.887781   2.261572   0.000000
     6  C    2.261451   2.887664   3.207497   3.010663   1.377702
     7  H    1.083748   2.147117   2.762552   2.701285   2.956634
     8  H    1.082541   2.137385   3.415322   3.943332   3.789214
     9  H    2.132596   1.091395   2.151205   3.392796   4.026950
    10  H    3.392787   2.151197   1.091395   2.132595   3.587558
    11  H    2.701280   2.762575   2.147124   1.083746   2.408184
    12  H    3.943335   3.415330   2.137382   1.082540   2.729339
    13  H    3.659783   3.988660   3.522348   2.509450   1.083136
    14  H    3.665850   3.497533   2.954370   2.517481   1.082473
    15  H    2.509324   3.522253   3.988692   3.659961   2.141074
    16  H    2.517459   2.954224   3.497410   3.665817   2.141075
                    6          7          8          9         10
     6  C    0.000000
     7  H    2.408215   0.000000
     8  H    2.729136   1.818251   0.000000
     9  H    3.587373   3.086545   2.455826   0.000000
    10  H    4.026936   3.835906   4.267720   2.428944   0.000000
    11  H    2.956667   2.135698   3.744008   3.835929   3.086550
    12  H    3.789338   3.744015   5.015505   4.267723   2.455822
    13  H    2.141083   3.288158   4.470136   4.918845   4.264066
    14  H    2.141096   3.817918   4.440642   4.139130   3.334107
    15  H    1.083137   2.350546   2.750383   4.263869   4.918879
    16  H    1.082476   3.047428   2.701107   3.333862   4.138990
                   11         12         13         14         15
    11  H    0.000000
    12  H    1.818243   0.000000
    13  H    2.350451   2.750676   0.000000
    14  H    3.047308   2.701166   1.823410   0.000000
    15  H    3.288342   4.470385   2.475885   3.075297   0.000000
    16  H    3.817908   4.440637   3.075303   2.476947   1.823416
                   16
    16  H    0.000000
 Symmetry turned off by external request.
 Stoichiometry    C6H10
 Framework group  C1[X(C6H10)]
 Deg. of freedom    42
 Full point group                 C1      NOp   1
 Rotational constants (GHZ):           4.3597133           3.4908591           2.2711456
 Standard basis: VSTO-6G (5D, 7F)
    34 basis functions,   204 primitive gaussians,    34 cartesian basis functions
    17 alpha electrons       17 beta electrons
       nuclear repulsion energy       142.0622437586 Hartrees.
 Integral buffers will be    131072 words long.
 Regular integral format.
 Two-electron integral symmetry is turned off.
 Do NDO integrals.
 One-electron integrals computed using PRISM.
 NBasis=    34 RedAO= F EigKep=  0.00D+00  NBF=    34
 NBsUse=    34 1.00D-04 EigRej=  0.00D+00 NBFU=    34
 Initial guess from the checkpoint file:  "C:\Users\al6323\OneDrive - Imperial College London\Desktop\TSR202511112\TS_guess_opt_TS(Berny)_IRS_PM6.chk"
 B after Tr=     0.000006   -0.000376   -0.000594
         Rot=    1.000000   -0.000097    0.000000   -0.000001 Ang=  -0.01 deg.
 Keep J ints in memory in canonical form, NReq=862294.
 Overlap will be assumed to be unity.
 Requested convergence on RMS density matrix=1.00D-08 within  32 cycles.
 Requested convergence on MAX density matrix=1.00D-06.
 Requested convergence on             energy=1.00D-06.
 No special actions if energy rises.
 SCF Done:  E(RPM6) =  0.111530001239     A.U. after   14 cycles
            NFock= 13  Conv=0.29D-08     -V/T= 1.0022
 QCSCF skips out because SCF is already converged.
 Range of M.O.s used for correlation:     1    34
 NBasis=    34 NAE=    17 NBE=    17 NFC=     0 NFV=     0
 NROrb=     34 NOA=    17 NOB=    17 NVA=    17 NVB=    17
 Symmetrizing basis deriv contribution to polar:
 IMax=3 JMax=2 DiffMx= 0.00D+00
 Calling FoFJK, ICntrl=      2127 FMM=F ISym2X=0 I1Cent= 0 IOpClX= 0 NMat=1 NMatS=1 NMatT=0.
 -------------------------------------------------------------------
 Center     Atomic                   Forces (Hartrees/Bohr)
 Number     Number              X              Y              Z
 -------------------------------------------------------------------
      1        6           0.002219846   -0.013227691   -0.027213064
      2        6          -0.024241061    0.012498787    0.013657018
      3        6           0.023980249    0.012416093    0.014188173
      4        6          -0.001668725   -0.013222576   -0.027258700
      5        6          -0.028654039    0.002682972    0.017619522
      6        6           0.028269787    0.002589540    0.018258116
      7        1           0.000330326    0.000027762    0.006347526
      8        1           0.001611458    0.001146059    0.003968641
      9        1           0.000455195   -0.000442747   -0.001248196
     10        1          -0.000428295   -0.000441198   -0.001257177
     11        1          -0.000470271    0.000028851    0.006338006
     12        1          -0.001694864    0.001151390    0.003934834
     13        1           0.001587068   -0.002398161   -0.006384909
     14        1           0.001598553   -0.000211149   -0.007247812
     15        1          -0.001454566   -0.002392622   -0.006421252
     16        1          -0.001440663   -0.000205309   -0.007280726
 -------------------------------------------------------------------
 Cartesian Forces:  Max     0.028654039 RMS     0.011467667
 IRC-IRC-IRC-IRC-IRC-IRC-IRC-IRC-IRC-IRC-IRC-IRC-IRC-IRC-IRC-IRC-IRC-IRC
 Error in corrector energy =          -0.0000483392
 Magnitude of corrector gradient =     0.0810684958
 Magnitude of analytic gradient =      0.0794503253
 Magnitude of difference =             0.0023680243
 Angle between gradients (degrees)=    1.2343
 Pt  1 Step number   2 out of a maximum of  20
 Modified Bulirsch-Stoer Extrapolation Cycles:
    EPS =    0.000010000000000
      PEZero:  N= 2 I= 1 D=  7.47D-04 Err=  6.60D-04
      PEZero:  N= 3 I= 2 D=  7.47D-04 Err=  4.40D-04
      PEZero:  N= 3 I= 1 D=  1.49D-03 Err=  1.24D-06
 Maximum DWI energy   std dev =  0.000000782 at pt     4
 Maximum DWI gradient std dev =  0.001135510 at pt    27
 CORRECTOR INTEGRATION CONVERGENCE:
   Recorrection delta-x convergence threshold:    0.010000
   Delta-x Convergence Met
 Point Number:   1          Path Number:   1
   CHANGE IN THE REACTION COORDINATE =    0.14853
   NET REACTION COORDINATE UP TO THIS POINT =    0.14853
  # OF POINTS ALONG THE PATH =   1
  # OF STEPS =   2

 Calculating another point on the path.
 IRC-IRC-IRC-IRC-IRC-IRC-IRC-IRC-IRC-IRC-IRC-IRC-IRC-IRC-IRC-IRC-IRC-IRC
                          Input orientation:                          
 ---------------------------------------------------------------------
 Center     Atomic      Atomic             Coordinates (Angstroms)
 Number     Number       Type             X           Y           Z
 ---------------------------------------------------------------------
      1          6           0       -1.426816    0.235597   -0.627362
      2          6           0       -0.707083   -0.850599   -1.007949
      3          6           0        0.726242   -0.853057   -0.992162
      4          6           0        1.441155    0.230659   -0.595754
      5          6           0        0.661063    0.553654    1.532698
      6          6           0       -0.692873    0.555849    1.517730
      7          1           0       -1.053234    1.248374   -0.739058
      8          1           0       -2.498684    0.179987   -0.494695
      9          1           0       -1.201883   -1.814617   -1.144997
     10          1           0        1.220623   -1.818770   -1.118356
     11          1           0        1.073611    1.244716   -0.715551
     12          1           0        2.509646    0.171362   -0.439535
     13          1           0        1.231558    1.474758    1.553984
     14          1           0        1.225819   -0.322893    1.828354
     15          1           0       -1.260705    1.478804    1.526529
     16          1           0       -1.266845   -0.318867    1.800800
 ---------------------------------------------------------------------
                    Distance matrix (angstroms):
                    1          2          3          4          5
     1  C    0.000000
     2  C    1.357455   0.000000
     3  C    2.440062   1.433414   0.000000
     4  C    2.868149   2.440072   1.357453   0.000000
     5  C    3.020969   3.209149   2.891021   2.289799   0.000000
     6  C    2.289684   2.890908   3.209121   3.021032   1.354020
     7  H    1.085245   2.144250   2.765249   2.697825   2.929561
     8  H    1.081478   2.129641   3.422689   3.941461   3.772791
     9  H    2.126480   1.092217   2.160005   3.386808   4.031045
    10  H    3.386802   2.159999   1.092218   2.126477   3.601332
    11  H    2.697820   2.765270   2.144255   1.085243   2.387967
    12  H    3.941464   3.422696   2.129639   1.081477   2.730039
    13  H    3.655235   3.965995   3.486679   2.492607   1.083675
    14  H    3.657721   3.472635   2.913067   2.495813   1.083834
    15  H    2.492469   3.486573   3.966022   3.655407   2.132869
    16  H    2.495795   2.912927   3.472520   3.657693   2.133073
                    6          7          8          9         10
     6  C    0.000000
     7  H    2.388000   0.000000
     8  H    2.729850   1.813971   0.000000
     9  H    3.601154   3.093347   2.466380   0.000000
    10  H    4.031033   3.836882   4.268165   2.422655   0.000000
    11  H    2.929598   2.126978   3.734129   3.836902   3.093350
    12  H    3.772910   3.734138   5.008642   4.268165   2.466375
    13  H    2.132872   3.244930   4.448396   4.901645   4.241327
    14  H    2.133085   3.775522   4.418299   4.118226   3.304659
    15  H    1.083677   2.286707   2.702751   4.241124   4.901673
    16  H    1.083836   2.992116   2.652467   3.304422   4.118092
                   11         12         13         14         15
    11  H    0.000000
    12  H    1.813965   0.000000
    13  H    2.286626   2.703049   0.000000
    14  H    2.991992   2.652512   1.818478   0.000000
    15  H    3.245112   4.448636   2.492418   3.085452   0.000000
    16  H    3.775520   4.418293   3.085455   2.492819   1.818484
                   16
    16  H    0.000000
 Symmetry turned off by external request.
 Stoichiometry    C6H10
 Framework group  C1[X(C6H10)]
 Deg. of freedom    42
 Full point group                 C1      NOp   1
 Rotational constants (GHZ):           4.3634857           3.4882110           2.2691752
 Standard basis: VSTO-6G (5D, 7F)
    34 basis functions,   204 primitive gaussians,    34 cartesian basis functions
    17 alpha electrons       17 beta electrons
       nuclear repulsion energy       142.2311015206 Hartrees.
 Integral buffers will be    131072 words long.
 Regular integral format.
 Two-electron integral symmetry is turned off.
 Do NDO integrals.
 One-electron integrals computed using PRISM.
 NBasis=    34 RedAO= F EigKep=  0.00D+00  NBF=    34
 NBsUse=    34 1.00D-04 EigRej=  0.00D+00 NBFU=    34
 Initial guess from the checkpoint file:  "C:\Users\al6323\OneDrive - Imperial College London\Desktop\TSR202511112\TS_guess_opt_TS(Berny)_IRS_PM6.chk"
 B after Tr=     0.000009   -0.000310   -0.000867
         Rot=    1.000000   -0.000211    0.000001   -0.000002 Ang=  -0.02 deg.
 Keep J ints in memory in canonical form, NReq=862294.
 Overlap will be assumed to be unity.
 Requested convergence on RMS density matrix=1.00D-08 within  32 cycles.
 Requested convergence on MAX density matrix=1.00D-06.
 Requested convergence on             energy=1.00D-06.
 No special actions if energy rises.
 SCF Done:  E(RPM6) =  0.104557999463     A.U. after   14 cycles
            NFock= 13  Conv=0.18D-08     -V/T= 1.0021
 QCSCF skips out because SCF is already converged.
 Range of M.O.s used for correlation:     1    34
 NBasis=    34 NAE=    17 NBE=    17 NFC=     0 NFV=     0
 NROrb=     34 NOA=    17 NOB=    17 NVA=    17 NVB=    17
 Symmetrizing basis deriv contribution to polar:
 IMax=3 JMax=2 DiffMx= 0.00D+00
 G2DrvN: will do    17 centers at a time, making    1 passes.
 Calling FoFCou, ICntrl=  3107 FMM=F I1Cent=   0 AccDes= 0.00D+00.
 End of G2Drv F.D. properties file   721 does not exist.
 End of G2Drv F.D. properties file   722 does not exist.
 End of G2Drv F.D. properties file   788 does not exist.
          IDoAtm=1111111111111111
          Differentiating once with respect to nuclear coordinates.
          Electric field/nuclear overlap derivatives assumed to be zero.
 Keep J ints in memory in canonical form, NReq=863961.
          There are    51 degrees of freedom in the 1st order CPHF.  IDoFFX=5 NUNeed=    51.
 LinEq1:  Iter=  0 NonCon=    48 RMS=1.60D-02 Max=1.20D-01 NDo=    48
 AX will form    51 AO Fock derivatives at one time.
 LinEq1:  Iter=  1 NonCon=    48 RMS=2.33D-03 Max=2.68D-02 NDo=    51
 LinEq1:  Iter=  2 NonCon=    48 RMS=3.92D-04 Max=4.00D-03 NDo=    51
 LinEq1:  Iter=  3 NonCon=    48 RMS=6.63D-05 Max=4.23D-04 NDo=    51
 LinEq1:  Iter=  4 NonCon=    48 RMS=9.89D-06 Max=8.48D-05 NDo=    51
 LinEq1:  Iter=  5 NonCon=    48 RMS=2.06D-06 Max=1.94D-05 NDo=    51
 LinEq1:  Iter=  6 NonCon=    48 RMS=3.07D-07 Max=2.77D-06 NDo=    51
 LinEq1:  Iter=  7 NonCon=    28 RMS=4.72D-08 Max=3.70D-07 NDo=    51
 LinEq1:  Iter=  8 NonCon=     0 RMS=8.18D-09 Max=6.59D-08 NDo=    28
 Linear equations converged to 1.000D-08 1.000D-07 after     8 iterations.
 End of Minotr F.D. properties file   721 does not exist.
 End of Minotr F.D. properties file   722 does not exist.
 End of Minotr F.D. properties file   788 does not exist.
 Calling FoFJK, ICntrl=    100127 FMM=F ISym2X=0 I1Cent= 0 IOpClX= 0 NMat=1 NMatS=1 NMatT=0.
 -------------------------------------------------------------------
 Center     Atomic                   Forces (Hartrees/Bohr)
 Number     Number              X              Y              Z
 -------------------------------------------------------------------
      1        6          -0.005646892   -0.004466599   -0.026105014
      2        6          -0.011474577    0.003327229    0.007883315
      3        6           0.011311381    0.003286676    0.008133775
      4        6           0.006203257   -0.004486875   -0.025973455
      5        6          -0.012075332    0.002964630    0.021337736
      6        6           0.011612660    0.002925751    0.021608410
      7        1           0.000427331   -0.000842947    0.004906915
      8        1           0.000318959    0.000828206    0.001910752
      9        1           0.000588973   -0.000094131   -0.000540370
     10        1          -0.000576763   -0.000092133   -0.000552700
     11        1          -0.000538291   -0.000841698    0.004895646
     12        1          -0.000358592    0.000829201    0.001905151
     13        1           0.000768415   -0.001662354   -0.004380186
     14        1           0.000605620   -0.000008667   -0.005310237
     15        1          -0.000677023   -0.001660277   -0.004398240
     16        1          -0.000489127   -0.000006013   -0.005321497
 -------------------------------------------------------------------
 Cartesian Forces:  Max     0.026105014 RMS     0.008239779
 IRC-IRC-IRC-IRC-IRC-IRC-IRC-IRC-IRC-IRC-IRC-IRC-IRC-IRC-IRC-IRC-IRC-IRC
 Pt  2 Step number   1 out of a maximum of  20
 Modified Bulirsch-Stoer Extrapolation Cycles:
    EPS =    0.000010000000000
      PEZero:  N= 2 I= 1 D=  1.49D-03 Err=  2.43D-04
      PEZero:  N= 3 I= 2 D=  1.49D-03 Err=  1.62D-04
      PEZero:  N= 3 I= 1 D=  2.97D-03 Err=  4.42D-07
 Maximum DWI energy   std dev =  0.000144415 at pt    33
 Maximum DWI gradient std dev =  0.043056171 at pt    32
 CORRECTOR INTEGRATION CONVERGENCE:
   Recorrection delta-x convergence threshold:    0.010000
   Delta-x Convergence NOT Met
 IRC-IRC-IRC-IRC-IRC-IRC-IRC-IRC-IRC-IRC-IRC-IRC-IRC-IRC-IRC-IRC-IRC-IRC
                          Input orientation:                          
 ---------------------------------------------------------------------
 Center     Atomic      Atomic             Coordinates (Angstroms)
 Number     Number       Type             X           Y           Z
 ---------------------------------------------------------------------
      1          6           0       -1.427124    0.236206   -0.627291
      2          6           0       -0.706837   -0.851095   -1.007776
      3          6           0        0.725990   -0.853552   -0.991995
      4          6           0        1.441464    0.231266   -0.595676
      5          6           0        0.661890    0.553596    1.532629
      6          6           0       -0.693699    0.555794    1.517642
      7          1           0       -1.053575    1.247484   -0.738023
      8          1           0       -2.498386    0.180525   -0.493900
      9          1           0       -1.201813   -1.814477   -1.146046
     10          1           0        1.220577   -1.818630   -1.119406
     11          1           0        1.073926    1.243825   -0.714509
     12          1           0        2.509332    0.171900   -0.438746
     13          1           0        1.231437    1.473678    1.552896
     14          1           0        1.225523   -0.322269    1.826691
     15          1           0       -1.260562    1.477723    1.525443
     16          1           0       -1.266511   -0.318244    1.799145
 ---------------------------------------------------------------------
                    Distance matrix (angstroms):
                    1          2          3          4          5
     1  C    0.000000
     2  C    1.358604   0.000000
     3  C    2.440591   1.432917   0.000000
     4  C    2.868767   2.440601   1.358603   0.000000
     5  C    3.021585   3.209397   2.891003   2.289392   0.000000
     6  C    2.289277   2.890891   3.209370   3.021648   1.355674
     7  H    1.083736   2.144068   2.765087   2.697810   2.929191
     8  H    1.080970   2.130248   3.422575   3.941492   3.772711
     9  H    2.127245   1.091890   2.159522   3.387460   4.031929
    10  H    3.387455   2.159516   1.091891   2.127242   3.601788
    11  H    2.697806   2.765107   2.144073   1.083735   2.386591
    12  H    3.941494   3.422581   2.130245   1.080969   2.728562
    13  H    3.654107   3.964659   3.485390   2.490795   1.082286
    14  H    3.656564   3.471005   2.911492   2.494172   1.082263
    15  H    2.490657   3.485284   3.964685   3.654278   2.133046
    16  H    2.494154   2.911352   3.470890   3.656536   2.133042
                    6          7          8          9         10
     6  C    0.000000
     7  H    2.386623   0.000000
     8  H    2.728374   1.812589   0.000000
     9  H    3.601610   3.092581   2.467069   0.000000
    10  H    4.031918   3.836440   4.268321   2.422540   0.000000
    11  H    2.929229   2.127633   3.733724   3.836460   3.092585
    12  H    3.772829   3.733732   5.008030   4.268321   2.467063
    13  H    2.133050   3.243571   4.446707   4.900709   4.240354
    14  H    2.133054   3.773084   4.416497   4.117743   3.304332
    15  H    1.082288   2.284542   2.700496   4.240151   4.900736
    16  H    1.082265   2.988991   2.650348   3.304095   4.117609
                   11         12         13         14         15
    11  H    0.000000
    12  H    1.812584   0.000000
    13  H    2.284462   2.700792   0.000000
    14  H    2.988868   2.650391   1.816706   0.000000
    15  H    3.243752   4.446944   2.492153   3.084046   0.000000
    16  H    3.773083   4.416490   3.084050   2.492189   1.816712
                   16
    16  H    0.000000
 Symmetry turned off by external request.
 Stoichiometry    C6H10
 Framework group  C1[X(C6H10)]
 Deg. of freedom    42
 Full point group                 C1      NOp   1
 Rotational constants (GHZ):           4.3620421           3.4887274           2.2690631
 Standard basis: VSTO-6G (5D, 7F)
    34 basis functions,   204 primitive gaussians,    34 cartesian basis functions
    17 alpha electrons       17 beta electrons
       nuclear repulsion energy       142.2386851114 Hartrees.
 Integral buffers will be    131072 words long.
 Regular integral format.
 Two-electron integral symmetry is turned off.
 Do NDO integrals.
 One-electron integrals computed using PRISM.
 NBasis=    34 RedAO= F EigKep=  0.00D+00  NBF=    34
 NBsUse=    34 1.00D-04 EigRej=  0.00D+00 NBFU=    34
 Initial guess from the checkpoint file:  "C:\Users\al6323\OneDrive - Imperial College London\Desktop\TSR202511112\TS_guess_opt_TS(Berny)_IRS_PM6.chk"
 B after Tr=     0.000001   -0.000026   -0.000081
         Rot=    1.000000   -0.000015    0.000000    0.000000 Ang=   0.00 deg.
 Keep J ints in memory in canonical form, NReq=862294.
 Overlap will be assumed to be unity.
 Requested convergence on RMS density matrix=1.00D-08 within  32 cycles.
 Requested convergence on MAX density matrix=1.00D-06.
 Requested convergence on             energy=1.00D-06.
 No special actions if energy rises.
 SCF Done:  E(RPM6) =  0.104548036633     A.U. after   10 cycles
            NFock=  9  Conv=0.24D-08     -V/T= 1.0021
 QCSCF skips out because SCF is already converged.
 Range of M.O.s used for correlation:     1    34
 NBasis=    34 NAE=    17 NBE=    17 NFC=     0 NFV=     0
 NROrb=     34 NOA=    17 NOB=    17 NVA=    17 NVB=    17
 Symmetrizing basis deriv contribution to polar:
 IMax=3 JMax=2 DiffMx= 0.00D+00
 Calling FoFJK, ICntrl=      2127 FMM=F ISym2X=0 I1Cent= 0 IOpClX= 0 NMat=1 NMatS=1 NMatT=0.
 -------------------------------------------------------------------
 Center     Atomic                   Forces (Hartrees/Bohr)
 Number     Number              X              Y              Z
 -------------------------------------------------------------------
      1        6          -0.004948152   -0.005992543   -0.026096185
      2        6          -0.012159143    0.004370002    0.008064012
      3        6           0.011995435    0.004327138    0.008329626
      4        6           0.005499093   -0.006010434   -0.025980077
      5        6          -0.014381797    0.002957159    0.020878156
      6        6           0.013928873    0.002910509    0.021199748
      7        1           0.000664528   -0.000190981    0.004742905
      8        1           0.000081080    0.000767162    0.001857774
      9        1           0.000492907   -0.000184278   -0.000501180
     10        1          -0.000481938   -0.000182588   -0.000511411
     11        1          -0.000769567   -0.000188914    0.004726523
     12        1          -0.000119678    0.000767347    0.001857387
     13        1           0.001070619   -0.001086893   -0.004258860
     14        1           0.000962086   -0.000591512   -0.005002859
     15        1          -0.000980197   -0.001083420   -0.004283486
     16        1          -0.000854149   -0.000587754   -0.005022075
 -------------------------------------------------------------------
 Cartesian Forces:  Max     0.026096185 RMS     0.008414694
 IRC-IRC-IRC-IRC-IRC-IRC-IRC-IRC-IRC-IRC-IRC-IRC-IRC-IRC-IRC-IRC-IRC-IRC
 Error in corrector energy =          -0.0000019928
 Magnitude of corrector gradient =     0.0580188574
 Magnitude of analytic gradient =      0.0582987073
 Magnitude of difference =             0.0007654235
 Angle between gradients (degrees)=    0.7019
 Pt  2 Step number   2 out of a maximum of  20
 Modified Bulirsch-Stoer Extrapolation Cycles:
    EPS =    0.000010000000000
      PEZero:  N= 2 I= 1 D=  1.49D-03 Err=  2.50D-04
      PEZero:  N= 3 I= 2 D=  1.49D-03 Err=  1.66D-04
      PEZero:  N= 3 I= 1 D=  2.97D-03 Err=  5.55D-07
 Maximum DWI energy   std dev =  0.000132798 at pt    34
 Maximum DWI gradient std dev =  0.052516573 at pt    29
 CORRECTOR INTEGRATION CONVERGENCE:
   Recorrection delta-x convergence threshold:    0.010000
   Delta-x Convergence Met
 Point Number:   2          Path Number:   1
   CHANGE IN THE REACTION COORDINATE =    0.28397
   NET REACTION COORDINATE UP TO THIS POINT =    0.43250
  # OF POINTS ALONG THE PATH =   2
  # OF STEPS =   2

 Calculating another point on the path.
 IRC-IRC-IRC-IRC-IRC-IRC-IRC-IRC-IRC-IRC-IRC-IRC-IRC-IRC-IRC-IRC-IRC-IRC
                          Input orientation:                          
 ---------------------------------------------------------------------
 Center     Atomic      Atomic             Coordinates (Angstroms)
 Number     Number       Type             X           Y           Z
 ---------------------------------------------------------------------
      1          6           0       -1.432142    0.233390   -0.645177
      2          6           0       -0.712938   -0.849604   -1.003486
      3          6           0        0.732001   -0.852082   -0.987572
      4          6           0        1.446863    0.228433   -0.613446
      5          6           0        0.655015    0.555745    1.547924
      6          6           0       -0.687155    0.557920    1.533091
      7          1           0       -1.048298    1.245780   -0.706160
      8          1           0       -2.500370    0.185763   -0.487590
      9          1           0       -1.198485   -1.816541   -1.148396
     10          1           0        1.217297   -1.820683   -1.121826
     11          1           0        1.067943    1.242138   -0.682774
     12          1           0        2.511192    0.177131   -0.432381
     13          1           0        1.238237    1.467764    1.526854
     14          1           0        1.231558   -0.327297    1.794518
     15          1           0       -1.266807    1.471831    1.499244
     16          1           0       -1.271854   -0.323248    1.766854
 ---------------------------------------------------------------------
                    Distance matrix (angstroms):
                    1          2          3          4          5
     1  C    0.000000
     2  C    1.348523   0.000000
     3  C    2.445199   1.445029   0.000000
     4  C    2.879184   2.445207   1.348522   0.000000
     5  C    3.044639   3.218073   2.901145   2.325011   0.000000
     6  C    2.324904   2.901037   3.218052   3.044703   1.342254
     7  H    1.084430   2.142779   2.765806   2.696187   2.908319
     8  H    1.080839   2.129095   3.431520   3.949469   3.773149
     9  H    2.123685   1.091660   2.163983   3.386142   4.041453
    10  H    3.386139   2.163980   1.091661   2.123682   3.618167
    11  H    2.696184   2.765823   2.142782   1.084428   2.370160
    12  H    3.949471   3.431524   2.129093   1.080838   2.740501
    13  H    3.656819   3.947138   3.458367   2.482005   1.082761
    14  H    3.655376   3.447129   2.874888   2.480622   1.083039
    15  H    2.481857   3.458249   3.947159   3.656980   2.129550
    16  H    2.480611   2.874756   3.447023   3.655353   2.129175
                    6          7          8          9         10
     6  C    0.000000
     7  H    2.370194   0.000000
     8  H    2.740328   1.811055   0.000000
     9  H    3.617996   3.097731   2.478061   0.000000
    10  H    4.041445   3.835218   4.271900   2.415932   0.000000
    11  H    2.908364   2.116374   3.726510   3.835233   3.097732
    12  H    3.773261   3.726518   5.011873   4.271897   2.478055
    13  H    2.129552   3.203728   4.436067   4.886843   4.222538
    14  H    2.129181   3.731716   4.404376   4.096791   3.276502
    15  H    1.082763   2.227701   2.668924   4.222328   4.886863
    16  H    1.083040   2.937282   2.617414   3.276276   4.096664
                   11         12         13         14         15
    11  H    0.000000
    12  H    1.811050   0.000000
    13  H    2.227636   2.669222   0.000000
    14  H    2.937154   2.617439   1.814920   0.000000
    15  H    3.203907   4.436293   2.505200   3.092875   0.000000
    16  H    3.731724   4.404367   3.092877   2.503568   1.814924
                   16
    16  H    0.000000
 Symmetry turned off by external request.
 Stoichiometry    C6H10
 Framework group  C1[X(C6H10)]
 Deg. of freedom    42
 Full point group                 C1      NOp   1
 Rotational constants (GHZ):           4.3447294           3.4668522           2.2565391
 Standard basis: VSTO-6G (5D, 7F)
    34 basis functions,   204 primitive gaussians,    34 cartesian basis functions
    17 alpha electrons       17 beta electrons
       nuclear repulsion energy       142.2214809733 Hartrees.
 Integral buffers will be    131072 words long.
 Regular integral format.
 Two-electron integral symmetry is turned off.
 Do NDO integrals.
 One-electron integrals computed using PRISM.
 NBasis=    34 RedAO= F EigKep=  0.00D+00  NBF=    34
 NBsUse=    34 1.00D-04 EigRej=  0.00D+00 NBFU=    34
 Initial guess from the checkpoint file:  "C:\Users\al6323\OneDrive - Imperial College London\Desktop\TSR202511112\TS_guess_opt_TS(Berny)_IRS_PM6.chk"
 B after Tr=     0.000010   -0.000368   -0.000932
         Rot=    1.000000   -0.000193    0.000000   -0.000002 Ang=  -0.02 deg.
 Keep J ints in memory in canonical form, NReq=862294.
 Overlap will be assumed to be unity.
 Requested convergence on RMS density matrix=1.00D-08 within  32 cycles.
 Requested convergence on MAX density matrix=1.00D-06.
 Requested convergence on             energy=1.00D-06.
 No special actions if energy rises.
 SCF Done:  E(RPM6) =  0.995806948295E-01 A.U. after   13 cycles
            NFock= 12  Conv=0.68D-08     -V/T= 1.0020
 QCSCF skips out because SCF is already converged.
 Range of M.O.s used for correlation:     1    34
 NBasis=    34 NAE=    17 NBE=    17 NFC=     0 NFV=     0
 NROrb=     34 NOA=    17 NOB=    17 NVA=    17 NVB=    17
 Symmetrizing basis deriv contribution to polar:
 IMax=3 JMax=2 DiffMx= 0.00D+00
 G2DrvN: will do    17 centers at a time, making    1 passes.
 Calling FoFCou, ICntrl=  3107 FMM=F I1Cent=   0 AccDes= 0.00D+00.
 End of G2Drv F.D. properties file   721 does not exist.
 End of G2Drv F.D. properties file   722 does not exist.
 End of G2Drv F.D. properties file   788 does not exist.
          IDoAtm=1111111111111111
          Differentiating once with respect to nuclear coordinates.
          Electric field/nuclear overlap derivatives assumed to be zero.
 Keep J ints in memory in canonical form, NReq=863961.
          There are    51 degrees of freedom in the 1st order CPHF.  IDoFFX=5 NUNeed=    51.
 LinEq1:  Iter=  0 NonCon=    48 RMS=1.58D-02 Max=1.19D-01 NDo=    48
 AX will form    51 AO Fock derivatives at one time.
 LinEq1:  Iter=  1 NonCon=    48 RMS=2.11D-03 Max=2.36D-02 NDo=    51
 LinEq1:  Iter=  2 NonCon=    48 RMS=3.39D-04 Max=3.37D-03 NDo=    51
 LinEq1:  Iter=  3 NonCon=    48 RMS=5.51D-05 Max=3.74D-04 NDo=    51
 LinEq1:  Iter=  4 NonCon=    48 RMS=7.69D-06 Max=7.37D-05 NDo=    51
 LinEq1:  Iter=  5 NonCon=    48 RMS=1.68D-06 Max=1.31D-05 NDo=    51
 LinEq1:  Iter=  6 NonCon=    48 RMS=2.42D-07 Max=1.96D-06 NDo=    51
 LinEq1:  Iter=  7 NonCon=    26 RMS=3.69D-08 Max=2.68D-07 NDo=    51
 LinEq1:  Iter=  8 NonCon=     0 RMS=6.04D-09 Max=3.54D-08 NDo=    26
 Linear equations converged to 1.000D-08 1.000D-07 after     8 iterations.
 End of Minotr F.D. properties file   721 does not exist.
 End of Minotr F.D. properties file   722 does not exist.
 End of Minotr F.D. properties file   788 does not exist.
 Calling FoFJK, ICntrl=    100127 FMM=F ISym2X=0 I1Cent= 0 IOpClX= 0 NMat=1 NMatS=1 NMatT=0.
 -------------------------------------------------------------------
 Center     Atomic                   Forces (Hartrees/Bohr)
 Number     Number              X              Y              Z
 -------------------------------------------------------------------
      1        6          -0.008158252   -0.001532152   -0.022598274
      2        6          -0.005167635   -0.000008207    0.004146340
      3        6           0.005076391   -0.000027235    0.004258980
      4        6           0.008647411   -0.001560819   -0.022410101
      5        6          -0.004480412    0.002752156    0.020502805
      6        6           0.004036976    0.002738310    0.020604212
      7        1           0.000332646   -0.000611700    0.002724212
      8        1          -0.000355427    0.000500893   -0.000261445
      9        1           0.000314041   -0.000245977   -0.000156387
     10        1          -0.000311139   -0.000244992   -0.000162955
     11        1          -0.000394741   -0.000610590    0.002715712
     12        1           0.000362506    0.000499634   -0.000252318
     13        1           0.000365067   -0.000653894   -0.001879891
     14        1           0.000234026   -0.000171830   -0.002669338
     15        1          -0.000325529   -0.000652883   -0.001888596
     16        1          -0.000175928   -0.000170714   -0.002672955
 -------------------------------------------------------------------
 Cartesian Forces:  Max     0.022598274 RMS     0.006743573
 IRC-IRC-IRC-IRC-IRC-IRC-IRC-IRC-IRC-IRC-IRC-IRC-IRC-IRC-IRC-IRC-IRC-IRC
 Reaction path inflection point has been passed.
   Previous lowest Hessian eigenvalue=   -0.0021061456
   Current lowest Hessian eigenvalue =    0.0001540828
 Pt  3 Step number   1 out of a maximum of  20
 Modified Bulirsch-Stoer Extrapolation Cycles:
    EPS =    0.000010000000000
      PEZero:  N= 2 I= 1 D=  1.48D-03 Err=  2.09D-04
      PEZero:  N= 3 I= 2 D=  1.48D-03 Err=  1.39D-04
      PEZero:  N= 3 I= 1 D=  2.97D-03 Err=  4.70D-07
 Maximum DWI energy   std dev =  0.000011794 at pt    34
 Maximum DWI gradient std dev =  0.013274556 at pt    36
 CORRECTOR INTEGRATION CONVERGENCE:
   Recorrection delta-x convergence threshold:    0.010000
   Delta-x Convergence Met
 Point Number:   3          Path Number:   1
   CHANGE IN THE REACTION COORDINATE =    0.28323
   NET REACTION COORDINATE UP TO THIS POINT =    0.71572
  # OF POINTS ALONG THE PATH =   3
  # OF STEPS =   1

 Calculating another point on the path.
 IRC-IRC-IRC-IRC-IRC-IRC-IRC-IRC-IRC-IRC-IRC-IRC-IRC-IRC-IRC-IRC-IRC-IRC
                          Input orientation:                          
 ---------------------------------------------------------------------
 Center     Atomic      Atomic             Coordinates (Angstroms)
 Number     Number       Type             X           Y           Z
 ---------------------------------------------------------------------
      1          6           0       -1.439870    0.232158   -0.665107
      2          6           0       -0.716521   -0.850119   -1.000588
      3          6           0        0.735519   -0.852611   -0.984595
      4          6           0        1.455023    0.227174   -0.633198
      5          6           0        0.652010    0.558257    1.566545
      6          6           0       -0.684553    0.560424    1.551780
      7          1           0       -1.045587    1.242072   -0.685068
      8          1           0       -2.506578    0.190068   -0.499091
      9          1           0       -1.195830   -1.819551   -1.149150
     10          1           0        1.214650   -1.823685   -1.122635
     11          1           0        1.064754    1.238439   -0.661752
     12          1           0        2.517664    0.181415   -0.443731
     13          1           0        1.241814    1.464504    1.516008
     14          1           0        1.234292   -0.330450    1.775718
     15          1           0       -1.270153    1.468582    1.488314
     16          1           0       -1.274185   -0.326389    1.748008
 ---------------------------------------------------------------------
                    Distance matrix (angstroms):
                    1          2          3          4          5
     1  C    0.000000
     2  C    1.344286   0.000000
     3  C    2.451758   1.452130   0.000000
     4  C    2.895074   2.451763   1.344285   0.000000
     5  C    3.076130   3.232115   2.916477   2.365018   0.000000
     6  C    2.364921   2.916374   3.232100   3.076194   1.336646
     7  H    1.084336   2.141285   2.765819   2.699215   2.901585
     8  H    1.080370   2.130210   3.440071   3.964044   3.791978
     9  H    2.122113   1.091607   2.166139   3.388556   4.055056
    10  H    3.388555   2.166137   1.091607   2.122110   3.636193
    11  H    2.699213   2.765832   2.141288   1.084335   2.366074
    12  H    3.964046   3.440074   2.130208   1.080369   2.768372
    13  H    3.669791   3.940280   3.446502   2.489082   1.082453
    14  H    3.664055   3.432725   2.853201   2.482447   1.082869
    15  H    2.488930   3.446377   3.940297   3.669945   2.128268
    16  H    2.482449   2.853079   3.432628   3.664034   2.127382
                    6          7          8          9         10
     6  C    0.000000
     7  H    2.366111   0.000000
     8  H    2.768215   1.809916   0.000000
     9  H    3.636029   3.100239   2.485801   0.000000
    10  H    4.055052   3.833928   4.276862   2.410629   0.000000
    11  H    2.901638   2.110472   3.725581   3.833940   3.100239
    12  H    3.792085   3.725586   5.024555   4.276858   2.485796
    13  H    2.128269   3.182202   4.442438   4.881617   4.216084
    14  H    2.127385   3.704880   4.409059   4.083842   3.260458
    15  H    1.082455   2.196662   2.667044   4.215870   4.881632
    16  H    1.082870   2.903822   2.614378   3.260245   4.083722
                   11         12         13         14         15
    11  H    0.000000
    12  H    1.809912   0.000000
    13  H    2.196610   2.667337   0.000000
    14  H    2.903690   2.614384   1.813661   0.000000
    15  H    3.182379   4.442652   2.512123   3.096993   0.000000
    16  H    3.704897   4.409048   3.096993   2.508633   1.813664
                   16
    16  H    0.000000
 Symmetry turned off by external request.
 Stoichiometry    C6H10
 Framework group  C1[X(C6H10)]
 Deg. of freedom    42
 Full point group                 C1      NOp   1
 Rotational constants (GHZ):           4.3132618           3.4271373           2.2351200
 Standard basis: VSTO-6G (5D, 7F)
    34 basis functions,   204 primitive gaussians,    34 cartesian basis functions
    17 alpha electrons       17 beta electrons
       nuclear repulsion energy       142.0261716105 Hartrees.
 Integral buffers will be    131072 words long.
 Regular integral format.
 Two-electron integral symmetry is turned off.
 Do NDO integrals.
 One-electron integrals computed using PRISM.
 NBasis=    34 RedAO= F EigKep=  0.00D+00  NBF=    34
 NBsUse=    34 1.00D-04 EigRej=  0.00D+00 NBFU=    34
 Initial guess from the checkpoint file:  "C:\Users\al6323\OneDrive - Imperial College London\Desktop\TSR202511112\TS_guess_opt_TS(Berny)_IRS_PM6.chk"
 B after Tr=     0.000009   -0.000349   -0.000858
         Rot=    1.000000   -0.000127    0.000000   -0.000001 Ang=  -0.01 deg.
 Keep J ints in memory in canonical form, NReq=862294.
 Overlap will be assumed to be unity.
 Requested convergence on RMS density matrix=1.00D-08 within  32 cycles.
 Requested convergence on MAX density matrix=1.00D-06.
 Requested convergence on             energy=1.00D-06.
 No special actions if energy rises.
 SCF Done:  E(RPM6) =  0.958272370931E-01 A.U. after   12 cycles
            NFock= 11  Conv=0.67D-08     -V/T= 1.0019
 QCSCF skips out because SCF is already converged.
 Range of M.O.s used for correlation:     1    34
 NBasis=    34 NAE=    17 NBE=    17 NFC=     0 NFV=     0
 NROrb=     34 NOA=    17 NOB=    17 NVA=    17 NVB=    17
 Symmetrizing basis deriv contribution to polar:
 IMax=3 JMax=2 DiffMx= 0.00D+00
 G2DrvN: will do    17 centers at a time, making    1 passes.
 Calling FoFCou, ICntrl=  3107 FMM=F I1Cent=   0 AccDes= 0.00D+00.
 End of G2Drv F.D. properties file   721 does not exist.
 End of G2Drv F.D. properties file   722 does not exist.
 End of G2Drv F.D. properties file   788 does not exist.
          IDoAtm=1111111111111111
          Differentiating once with respect to nuclear coordinates.
          Electric field/nuclear overlap derivatives assumed to be zero.
 Keep J ints in memory in canonical form, NReq=863961.
          There are    51 degrees of freedom in the 1st order CPHF.  IDoFFX=5 NUNeed=    51.
 LinEq1:  Iter=  0 NonCon=    48 RMS=1.57D-02 Max=1.23D-01 NDo=    48
 AX will form    51 AO Fock derivatives at one time.
 LinEq1:  Iter=  1 NonCon=    48 RMS=1.96D-03 Max=2.13D-02 NDo=    51
 LinEq1:  Iter=  2 NonCon=    48 RMS=3.03D-04 Max=2.89D-03 NDo=    51
 LinEq1:  Iter=  3 NonCon=    48 RMS=4.78D-05 Max=3.45D-04 NDo=    51
 LinEq1:  Iter=  4 NonCon=    48 RMS=6.85D-06 Max=6.50D-05 NDo=    51
 LinEq1:  Iter=  5 NonCon=    48 RMS=1.43D-06 Max=1.00D-05 NDo=    51
 LinEq1:  Iter=  6 NonCon=    48 RMS=1.95D-07 Max=1.41D-06 NDo=    51
 LinEq1:  Iter=  7 NonCon=    25 RMS=3.11D-08 Max=2.87D-07 NDo=    51
 LinEq1:  Iter=  8 NonCon=     0 RMS=6.05D-09 Max=4.33D-08 NDo=    25
 Linear equations converged to 1.000D-08 1.000D-07 after     8 iterations.
 End of Minotr F.D. properties file   721 does not exist.
 End of Minotr F.D. properties file   722 does not exist.
 End of Minotr F.D. properties file   788 does not exist.
 Calling FoFJK, ICntrl=    100127 FMM=F ISym2X=0 I1Cent= 0 IOpClX= 0 NMat=1 NMatS=1 NMatT=0.
 -------------------------------------------------------------------
 Center     Atomic                   Forces (Hartrees/Bohr)
 Number     Number              X              Y              Z
 -------------------------------------------------------------------
      1        6          -0.007729300   -0.000669629   -0.019150825
      2        6          -0.002483595   -0.000978027    0.002123266
      3        6           0.002433953   -0.000987553    0.002177699
      4        6           0.008145954   -0.000696853   -0.018972475
      5        6          -0.001445488    0.002392216    0.018457285
      6        6           0.001046554    0.002388460    0.018490512
      7        1          -0.000034139   -0.000520211    0.001138004
      8        1          -0.000619386    0.000293891   -0.001599898
      9        1           0.000198009   -0.000249238   -0.000006952
     10        1          -0.000198555   -0.000248654   -0.000011101
     11        1           0.000007185   -0.000520310    0.001138143
     12        1           0.000655313    0.000291745   -0.001585061
     13        1           0.000130303   -0.000236341   -0.000194566
     14        1           0.000022583   -0.000011872   -0.000903370
     15        1          -0.000126626   -0.000236007   -0.000197799
     16        1          -0.000002764   -0.000011617   -0.000902861
 -------------------------------------------------------------------
 Cartesian Forces:  Max     0.019150825 RMS     0.005747182
 IRC-IRC-IRC-IRC-IRC-IRC-IRC-IRC-IRC-IRC-IRC-IRC-IRC-IRC-IRC-IRC-IRC-IRC
 Pt  4 Step number   1 out of a maximum of  20
 Modified Bulirsch-Stoer Extrapolation Cycles:
    EPS =    0.000010000000000
      PEZero:  N= 2 I= 1 D=  1.49D-03 Err=  1.83D-04
      PEZero:  N= 3 I= 2 D=  1.49D-03 Err=  1.22D-04
      PEZero:  N= 3 I= 1 D=  2.97D-03 Err=  6.46D-07
 Maximum DWI energy   std dev =  0.000005597 at pt    34
 Maximum DWI gradient std dev =  0.010151119 at pt    35
 CORRECTOR INTEGRATION CONVERGENCE:
   Recorrection delta-x convergence threshold:    0.010000
   Delta-x Convergence Met
 Point Number:   4          Path Number:   1
   CHANGE IN THE REACTION COORDINATE =    0.28399
   NET REACTION COORDINATE UP TO THIS POINT =    0.99971
  # OF POINTS ALONG THE PATH =   4
  # OF STEPS =   1

 Calculating another point on the path.
 IRC-IRC-IRC-IRC-IRC-IRC-IRC-IRC-IRC-IRC-IRC-IRC-IRC-IRC-IRC-IRC-IRC-IRC
                          Input orientation:                          
 ---------------------------------------------------------------------
 Center     Atomic      Atomic             Coordinates (Angstroms)
 Number     Number       Type             X           Y           Z
 ---------------------------------------------------------------------
      1          6           0       -1.447918    0.231201   -0.685169
      2          6           0       -0.718738   -0.851213   -0.998809
      3          6           0        0.737693   -0.853714   -0.982768
      4          6           0        1.463507    0.226188   -0.653074
      5          6           0        0.650534    0.560849    1.586199
      6          6           0       -0.683501    0.563011    1.571468
      7          1           0       -1.046935    1.238330   -0.676000
      8          1           0       -2.515310    0.192822   -0.524758
      9          1           0       -1.193576   -1.822812   -1.148694
     10          1           0        1.212377   -1.826939   -1.122226
     11          1           0        1.065889    1.234691   -0.652660
     12          1           0        2.526968    0.184138   -0.469191
     13          1           0        1.243551    1.463550    1.519330
     14          1           0        1.235307   -0.331425    1.770548
     15          1           0       -1.271966    1.467634    1.491593
     16          1           0       -1.275089   -0.327357    1.742826
 ---------------------------------------------------------------------
                    Distance matrix (angstroms):
                    1          2          3          4          5
     1  C    0.000000
     2  C    1.342272   0.000000
     3  C    2.458150   1.456522   0.000000
     4  C    2.911606   2.458153   1.342271   0.000000
     5  C    3.109868   3.248244   2.933969   2.405673   0.000000
     6  C    2.405586   2.933871   3.248234   3.109932   1.334117
     7  H    1.084057   2.139652   2.766885   2.706894   2.908251
     8  H    1.080061   2.131292   3.447759   3.981026   3.822846
     9  H    2.120969   1.091760   2.167137   3.391774   4.069670
    10  H    3.391773   2.167136   1.091761   2.120967   3.654143
    11  H    2.706893   2.766895   2.139653   1.084056   2.374673
    12  H    3.981027   3.447760   2.131291   1.080060   2.808477
    13  H    3.690868   3.943315   3.447622   2.509738   1.082133
    14  H    3.680596   3.428966   2.846253   2.497389   1.082634
    15  H    2.509586   3.447495   3.943330   3.691016   2.127726
    16  H    2.497402   2.846140   3.428878   3.680578   2.126373
[...]
 Symmetrizing basis deriv contribution to polar:
 IMax=3 JMax=2 DiffMx= 0.00D+00
 G2DrvN: will do    17 centers at a time, making    1 passes.
 Calling FoFCou, ICntrl=  3107 FMM=F I1Cent=   0 AccDes= 0.00D+00.
 End of G2Drv F.D. properties file   721 does not exist.
 End of G2Drv F.D. properties file   722 does not exist.
 End of G2Drv F.D. properties file   788 does not exist.
          IDoAtm=1111111111111111
          Differentiating once with respect to nuclear coordinates.
          Electric field/nuclear overlap derivatives assumed to be zero.
 Keep J ints in memory in canonical form, NReq=863961.
          There are    51 degrees of freedom in the 1st order CPHF.  IDoFFX=5 NUNeed=    51.
 LinEq1:  Iter=  0 NonCon=    48 RMS=1.53D-02 Max=1.49D-01 NDo=    48
 AX will form    51 AO Fock derivatives at one time.
 LinEq1:  Iter=  1 NonCon=    48 RMS=1.52D-03 Max=1.66D-02 NDo=    51
 LinEq1:  Iter=  2 NonCon=    48 RMS=1.98D-04 Max=1.82D-03 NDo=    51
 LinEq1:  Iter=  3 NonCon=    48 RMS=2.89D-05 Max=1.99D-04 NDo=    51
 LinEq1:  Iter=  4 NonCon=    48 RMS=4.85D-06 Max=3.42D-05 NDo=    51
 LinEq1:  Iter=  5 NonCon=    48 RMS=7.73D-07 Max=3.68D-06 NDo=    51
 LinEq1:  Iter=  6 NonCon=    48 RMS=1.01D-07 Max=9.69D-07 NDo=    51
 LinEq1:  Iter=  7 NonCon=    11 RMS=1.88D-08 Max=1.24D-07 NDo=    51
 LinEq1:  Iter=  8 NonCon=     0 RMS=2.17D-09 Max=1.30D-08 NDo=    11
 Linear equations converged to 1.000D-08 1.000D-07 after     8 iterations.
 End of Minotr F.D. properties file   721 does not exist.
 End of Minotr F.D. properties file   722 does not exist.
 End of Minotr F.D. properties file   788 does not exist.
 Calling FoFJK, ICntrl=    100127 FMM=F ISym2X=0 I1Cent= 0 IOpClX= 0 NMat=1 NMatS=1 NMatT=0.
 -------------------------------------------------------------------
 Center     Atomic                   Forces (Hartrees/Bohr)
 Number     Number              X              Y              Z
 -------------------------------------------------------------------
      1        6           0.000032474   -0.000210822   -0.000815514
      2        6           0.000004632   -0.000238132   -0.000592627
      3        6           0.000007622   -0.000238139   -0.000592577
      4        6          -0.000015207   -0.000210740   -0.000815944
      5        6           0.000006011    0.000422487    0.001371387
      6        6          -0.000034804    0.000422499    0.001370932
      7        1           0.000004455   -0.000016466   -0.000078233
      8        1           0.000003879   -0.000014499   -0.000078656
      9        1          -0.000000078   -0.000018181   -0.000040191
     10        1           0.000000902   -0.000018185   -0.000040182
     11        1          -0.000002783   -0.000016455   -0.000078300
     12        1          -0.000002193   -0.000014487   -0.000078715
     13        1          -0.000012432    0.000016729    0.000178520
     14        1          -0.000012619    0.000058875    0.000055541
     15        1           0.000008552    0.000016688    0.000178752
     16        1           0.000011590    0.000058827    0.000055807
 -------------------------------------------------------------------
 Cartesian Forces:  Max     0.001371387 RMS     0.000366935
 IRC-IRC-IRC-IRC-IRC-IRC-IRC-IRC-IRC-IRC-IRC-IRC-IRC-IRC-IRC-IRC-IRC-IRC
 Pt 57 Step number   1 out of a maximum of  20
 Modified Bulirsch-Stoer Extrapolation Cycles:
    EPS =    0.000010000000000
      PEZero:  N= 2 I= 1 D=  1.49D-03 Err=  4.07D-05
      PEZero:  N= 3 I= 2 D=  1.49D-03 Err=  2.71D-05
      PEZero:  N= 3 I= 1 D=  2.99D-03 Err=  3.20D-08
 Maximum DWI energy   std dev =  0.000000177 at pt    34
 Maximum DWI gradient std dev =  0.009904173 at pt    13
 CORRECTOR INTEGRATION CONVERGENCE:
   Recorrection delta-x convergence threshold:    0.010000
   Delta-x Convergence Met
 Point Number:  20          Path Number:   2
   CHANGE IN THE REACTION COORDINATE =    0.28652
   NET REACTION COORDINATE UP TO THIS POINT =    5.70068
  # OF POINTS ALONG THE PATH =  57
  # OF STEPS =   1

 Calculating another point on the path.
 IRC-IRC-IRC-IRC-IRC-IRC-IRC-IRC-IRC-IRC-IRC-IRC-IRC-IRC-IRC-IRC-IRC-IRC
                          Input orientation:                          
 ---------------------------------------------------------------------
 Center     Atomic      Atomic             Coordinates (Angstroms)
 Number     Number       Type             X           Y           Z
 ---------------------------------------------------------------------
      1          6           0       -1.495158    0.196154   -0.976781
      2          6           0       -0.723856   -0.890630   -1.066593
      3          6           0        0.744173   -0.893157   -1.050411
      4          6           0        1.517044    0.190967   -0.943544
      5          6           0        0.643422    0.635570    1.950198
      6          6           0       -0.684163    0.637715    1.935562
      7          1           0       -1.106722    1.200649   -0.881943
      8          1           0       -2.574282    0.156003   -0.989470
      9          1           0       -1.175079   -1.883312   -1.159321
     10          1           0        1.193912   -1.887386   -1.133236
     11          1           0        1.130070    1.196794   -0.857223
     12          1           0        2.596041    0.147103   -0.932444
     13          1           0        1.243358    1.534571    1.929878
     14          1           0        1.236413   -0.268974    1.977259
     15          1           0       -1.280598    1.538648    1.902051
     16          1           0       -1.280525   -0.264908    1.949510
 ---------------------------------------------------------------------
                    Distance matrix (angstroms):
                    1          2          3          4          5
     1  C    0.000000
     2  C    1.335692   0.000000
     3  C    2.491310   1.468121   0.000000
     4  C    3.012390   2.491310   1.335692   0.000000
     5  C    3.651551   3.646885   3.369096   3.055263   0.000000
     6  C    3.055230   3.369028   3.646882   3.651595   1.327667
     7  H    1.081151   2.134041   2.799682   2.812010   3.376884
     8  H    1.079945   2.127315   3.480890   4.091733   4.384661
     9  H    2.111860   1.094357   2.162359   3.405395   4.395546
    10  H    3.405395   2.162359   1.094357   2.111859   4.021930
    11  H    2.812010   2.799682   2.134041   1.081151   2.904034
    12  H    4.091733   3.480891   2.127315   1.079945   3.515814
    13  H    4.211829   4.327860   3.876231   3.183823   1.080989
    14  H    4.050207   3.673438   3.130285   2.970082   1.081930
    15  H    3.183709   3.876107   4.327864   4.211942   2.125964
    16  H    2.970156   3.130222   3.673367   4.050182   2.124249
                    6          7          8          9         10
     6  C    0.000000
     7  H    2.904098   0.000000
     8  H    3.515737   1.804599   0.000000
     9  H    4.021800   3.097164   2.478997   0.000000
    10  H    4.395546   3.859019   4.288986   2.369138   0.000000
    11  H    3.376930   2.236933   3.850060   3.859019   3.097164
    12  H    4.384734   3.850060   5.170645   4.288986   2.478997
    13  H    2.125963   3.679772   4.999742   5.203260   4.592919
    14  H    2.124250   3.978079   4.848039   4.273115   3.506600
    15  H    1.080989   2.809822   3.456330   4.592706   5.203257
    16  H    1.081929   3.192991   3.238607   3.506448   4.273008
                   11         12         13         14         15
    11  H    0.000000
    12  H    1.804599   0.000000
    13  H    2.809779   3.456545   0.000000
    14  H    3.192815   3.238530   1.804181   0.000000
    15  H    3.679916   4.999909   2.524113   3.099758   0.000000
    16  H    3.978102   4.848007   3.099758   2.517095   1.804180
                   16
    16  H    0.000000
 Symmetry turned off by external request.
 Stoichiometry    C6H10
 Framework group  C1[X(C6H10)]
 Deg. of freedom    42
 Full point group                 C1      NOp   1
 Rotational constants (GHZ):           4.0051905           2.4585435           1.7686609
 Standard basis: VSTO-6G (5D, 7F)
    34 basis functions,   204 primitive gaussians,    34 cartesian basis functions
    17 alpha electrons       17 beta electrons
       nuclear repulsion energy       135.9220301733 Hartrees.
 Integral buffers will be    131072 words long.
 Regular integral format.
 Two-electron integral symmetry is turned off.
 Do NDO integrals.
 One-electron integrals computed using PRISM.
 NBasis=    34 RedAO= F EigKep=  0.00D+00  NBF=    34
 NBsUse=    34 1.00D-04 EigRej=  0.00D+00 NBFU=    34
 Initial guess from the checkpoint file:  "C:\Users\al6323\OneDrive - Imperial College London\Desktop\TSR202511112\TS_guess_opt_TS(Berny)_IRS_PM6.chk"
 B after Tr=    -0.000003    0.000156    0.000305
         Rot=    1.000000   -0.000045    0.000000   -0.000001 Ang=  -0.01 deg.
 Keep J ints in memory in canonical form, NReq=862294.
 Overlap will be assumed to be unity.
 Requested convergence on RMS density matrix=1.00D-08 within  32 cycles.
 Requested convergence on MAX density matrix=1.00D-06.
 Requested convergence on             energy=1.00D-06.
 No special actions if energy rises.
 SCF Done:  E(RPM6) =  0.727020693972E-01 A.U. after   10 cycles
            NFock=  9  Conv=0.45D-08     -V/T= 1.0014
 QCSCF skips out because SCF is already converged.
 Range of M.O.s used for correlation:     1    34
 NBasis=    34 NAE=    17 NBE=    17 NFC=     0 NFV=     0
 NROrb=     34 NOA=    17 NOB=    17 NVA=    17 NVB=    17
 Symmetrizing basis deriv contribution to polar:
 IMax=3 JMax=2 DiffMx= 0.00D+00
 G2DrvN: will do    17 centers at a time, making    1 passes.
 Calling FoFCou, ICntrl=  3107 FMM=F I1Cent=   0 AccDes= 0.00D+00.
 End of G2Drv F.D. properties file   721 does not exist.
 End of G2Drv F.D. properties file   722 does not exist.
 End of G2Drv F.D. properties file   788 does not exist.
          IDoAtm=1111111111111111
          Differentiating once with respect to nuclear coordinates.
          Electric field/nuclear overlap derivatives assumed to be zero.
 Keep J ints in memory in canonical form, NReq=863961.
          There are    51 degrees of freedom in the 1st order CPHF.  IDoFFX=5 NUNeed=    51.
 LinEq1:  Iter=  0 NonCon=    48 RMS=1.53D-02 Max=1.50D-01 NDo=    48
 AX will form    51 AO Fock derivatives at one time.
 LinEq1:  Iter=  1 NonCon=    48 RMS=1.52D-03 Max=1.67D-02 NDo=    51
 LinEq1:  Iter=  2 NonCon=    48 RMS=1.97D-04 Max=1.82D-03 NDo=    51
 LinEq1:  Iter=  3 NonCon=    48 RMS=2.89D-05 Max=1.99D-04 NDo=    51
 LinEq1:  Iter=  4 NonCon=    48 RMS=4.86D-06 Max=3.53D-05 NDo=    51
 LinEq1:  Iter=  5 NonCon=    48 RMS=7.68D-07 Max=3.65D-06 NDo=    51
 LinEq1:  Iter=  6 NonCon=    48 RMS=1.02D-07 Max=9.65D-07 NDo=    51
 LinEq1:  Iter=  7 NonCon=    11 RMS=1.86D-08 Max=1.21D-07 NDo=    51
 LinEq1:  Iter=  8 NonCon=     0 RMS=2.13D-09 Max=1.26D-08 NDo=    11
 Linear equations converged to 1.000D-08 1.000D-07 after     8 iterations.
 End of Minotr F.D. properties file   721 does not exist.
 End of Minotr F.D. properties file   722 does not exist.
 End of Minotr F.D. properties file   788 does not exist.
 Calling FoFJK, ICntrl=    100127 FMM=F ISym2X=0 I1Cent= 0 IOpClX= 0 NMat=1 NMatS=1 NMatT=0.
 -------------------------------------------------------------------
 Center     Atomic                   Forces (Hartrees/Bohr)
 Number     Number              X              Y              Z
 -------------------------------------------------------------------
      1        6           0.000020596   -0.000190908   -0.000626083
      2        6           0.000006768   -0.000209054   -0.000536974
      3        6           0.000004360   -0.000209047   -0.000536999
      4        6          -0.000007443   -0.000190858   -0.000626301
      5        6           0.000016487    0.000378170    0.001128673
      6        6          -0.000040076    0.000378214    0.001128045
      7        1           0.000002873   -0.000015201   -0.000056060
      8        1           0.000002508   -0.000014038   -0.000059411
      9        1           0.000000005   -0.000016483   -0.000043196
     10        1           0.000000891   -0.000016486   -0.000043190
     11        1          -0.000001686   -0.000015196   -0.000056097
     12        1          -0.000001247   -0.000014029   -0.000059445
     13        1          -0.000017780   -0.000000232    0.000159375
     14        1          -0.000017743    0.000067751    0.000033775
     15        1           0.000014267   -0.000000290    0.000159729
     16        1           0.000017220    0.000067687    0.000034161
 -------------------------------------------------------------------
 Cartesian Forces:  Max     0.001128673 RMS     0.000304074
 IRC-IRC-IRC-IRC-IRC-IRC-IRC-IRC-IRC-IRC-IRC-IRC-IRC-IRC-IRC-IRC-IRC-IRC
 Pt 58 Step number   1 out of a maximum of  20
 Modified Bulirsch-Stoer Extrapolation Cycles:
    EPS =    0.000010000000000
      PEZero:  N= 2 I= 1 D=  1.49D-03 Err=  2.90D-02
      PEZero:  N= 3 I= 2 D=  1.49D-03 Err=  3.15D-05
      PEZero:  N= 3 I= 1 D=  2.98D-03 Err=  2.90D-02
      PEZero:  N= 4 I= 3 D=  7.46D-04 Err=  2.36D-05
      PEZero:  N= 4 I= 2 D=  2.24D-03 Err=  8.50D-09
      PEZero:  N= 4 I= 1 D=  3.73D-03 Err=  1.89D-05
 Maximum DWI energy   std dev =  0.000000166 at pt    35
 Maximum DWI gradient std dev =  0.017563216 at pt    13
 CORRECTOR INTEGRATION CONVERGENCE:
   Recorrection delta-x convergence threshold:    0.010000
   Delta-x Convergence Met
 Point Number:  21          Path Number:   2
   CHANGE IN THE REACTION COORDINATE =    0.28649
   NET REACTION COORDINATE UP TO THIS POINT =    5.98717
  # OF POINTS ALONG THE PATH =  58
  # OF STEPS =   1

 Calculating another point on the path.
 IRC-IRC-IRC-IRC-IRC-IRC-IRC-IRC-IRC-IRC-IRC-IRC-IRC-IRC-IRC-IRC-IRC-IRC
                          Input orientation:                          
 ---------------------------------------------------------------------
 Center     Atomic      Atomic             Coordinates (Angstroms)
 Number     Number       Type             X           Y           Z
 ---------------------------------------------------------------------
      1          6           0       -1.494772    0.192329   -0.988303
      2          6           0       -0.723760   -0.894671   -1.077223
      3          6           0        0.744298   -0.897198   -1.061040
      4          6           0        1.516898    0.187143   -0.955070
      5          6           0        0.643177    0.643115    1.971644
      6          6           0       -0.684365    0.645259    1.957008
      7          1           0       -1.106152    1.196649   -0.892414
      8          1           0       -2.573902    0.152588   -1.002332
      9          1           0       -1.175066   -1.887294   -1.170151
     10          1           0        1.194124   -1.891368   -1.144066
     11          1           0        1.129717    1.192795   -0.867700
     12          1           0        2.595932    0.143688   -0.945310
     13          1           0        1.242916    1.542525    1.966817
     14          1           0        1.236367   -0.261702    1.982915
     15          1           0       -1.280945    1.546600    1.938991
     16          1           0       -1.280578   -0.257638    1.955166
 ---------------------------------------------------------------------
                    Distance matrix (angstroms):
                    1          2          3          4          5
     1  C    0.000000
     2  C    1.335641   0.000000
     3  C    2.491142   1.468149   0.000000
     4  C    3.011858   2.491142   1.335640   0.000000
     5  C    3.679038   3.678164   3.402934   3.088195   0.000000
     6  C    3.088165   3.402866   3.678161   3.679080   1.327625
     7  H    1.081147   2.134010   2.799427   2.811302   3.401379
     8  H    1.079953   2.127296   3.480797   4.091219   4.408486
     9  H    2.111897   1.094354   2.162441   3.405321   4.424913
    10  H    3.405322   2.162441   1.094354   2.111897   4.053985
    11  H    2.811302   2.799427   2.134010   1.081147   2.932703
    12  H    4.091219   3.480797   2.127296   1.079953   3.545603
    13  H    4.248612   4.367370   3.920304   3.232576   1.081040
    14  H    4.061206   3.688792   3.148277   2.985283   1.081987
    15  H    3.232464   3.920180   4.367373   4.248722   2.125934
    16  H    2.985357   3.148212   3.688720   4.061179   2.124255
                    6          7          8          9         10
     6  C    0.000000
     7  H    2.932770   0.000000
     8  H    3.545528   1.804560   0.000000
     9  H    4.053854   3.097190   2.479117   0.000000
    10  H    4.424913   3.858814   4.289040   2.369337   0.000000
    11  H    3.401421   2.236009   3.849279   3.858814   3.097190
    12  H    4.408557   3.849279   5.170156   4.289040   2.479117
    13  H    2.125934   3.716578   5.031488   5.239357   4.633745
    14  H    2.124255   3.985185   4.858136   4.289450   3.526415
    15  H    1.081040   2.858299   3.502341   4.633530   5.239354
    16  H    1.081987   3.202200   3.253885   3.526261   4.289343
                   11         12         13         14         15
    11  H    0.000000
    12  H    1.804560   0.000000
    13  H    2.858254   3.502553   0.000000
    14  H    3.202022   3.253807   1.804311   0.000000
    15  H    3.716717   5.031653   2.524018   3.099797   0.000000
    16  H    3.985204   4.858102   3.099797   2.517101   1.804310
                   16
    16  H    0.000000
 Symmetry turned off by external request.
 Stoichiometry    C6H10
 Framework group  C1[X(C6H10)]
 Deg. of freedom    42
 Full point group                 C1      NOp   1
 Rotational constants (GHZ):           4.0063981           2.4118517           1.7444248
 Standard basis: VSTO-6G (5D, 7F)
    34 basis functions,   204 primitive gaussians,    34 cartesian basis functions
    17 alpha electrons       17 beta electrons
       nuclear repulsion energy       135.6324960663 Hartrees.
 Integral buffers will be    131072 words long.
 Regular integral format.
 Two-electron integral symmetry is turned off.
 Do NDO integrals.
 One-electron integrals computed using PRISM.
 NBasis=    34 RedAO= F EigKep=  0.00D+00  NBF=    34
 NBsUse=    34 1.00D-04 EigRej=  0.00D+00 NBFU=    34
 Initial guess from the checkpoint file:  "C:\Users\al6323\OneDrive - Imperial College London\Desktop\TSR202511112\TS_guess_opt_TS(Berny)_IRS_PM6.chk"
 B after Tr=    -0.000003    0.000162    0.000339
         Rot=    1.000000   -0.000083    0.000000   -0.000001 Ang=  -0.01 deg.
 Keep J ints in memory in canonical form, NReq=862294.
 Overlap will be assumed to be unity.
 Requested convergence on RMS density matrix=1.00D-08 within  32 cycles.
 Requested convergence on MAX density matrix=1.00D-06.
 Requested convergence on             energy=1.00D-06.
 No special actions if energy rises.
 SCF Done:  E(RPM6) =  0.725284740583E-01 A.U. after   10 cycles
            NFock=  9  Conv=0.54D-08     -V/T= 1.0014
 QCSCF skips out because SCF is already converged.
 Range of M.O.s used for correlation:     1    34
 NBasis=    34 NAE=    17 NBE=    17 NFC=     0 NFV=     0
 NROrb=     34 NOA=    17 NOB=    17 NVA=    17 NVB=    17
 Symmetrizing basis deriv contribution to polar:
 IMax=3 JMax=2 DiffMx= 0.00D+00
 G2DrvN: will do    17 centers at a time, making    1 passes.
 Calling FoFCou, ICntrl=  3107 FMM=F I1Cent=   0 AccDes= 0.00D+00.
 End of G2Drv F.D. properties file   721 does not exist.
 End of G2Drv F.D. properties file   722 does not exist.
 End of G2Drv F.D. properties file   788 does not exist.
