 Default is to use a total of   8 processors:
                                8 via shared-memory
                                1 via Linda
 Entering Link 1 = C:\G16W\l1.exe PID=      9796.
  
 Copyright (c) 1988-2019, Gaussian, Inc.  All Rights Reserved.
  
 This is part of the Gaussian(R) 16 program.  It is based on
 the Gaussian(R) 09 system (copyright 2009, Gaussian, Inc.),
 the Gaussian(R) 03 system (copyright 2003, Gaussian, Inc.),
 the Gaussian(R) 98 system (copyright 1998, Gaussian, Inc.),
 the Gaussian(R) 94 system (copyright 1995, Gaussian, Inc.),
 the Gaussian 92(TM) system (copyright 1992, Gaussian, Inc.),
 the Gaussian 90(TM) system (copyright 1990, Gaussian, Inc.),
 the Gaussian 88(TM) system (copyright 1988, Gaussian, Inc.),
 the Gaussian 86(TM) system (copyright 1986, Carnegie Mellon
 University), and the Gaussian 82(TM) system (copyright 1983,
 Carnegie Mellon University). Gaussian is a federally registered
 trademark of Gaussian, Inc.
  
 This software contains proprietary and confidential information,
 including trade secrets, belonging to Gaussian, Inc.
  
 This software is provided under written license and may be
 used, copied, transmitted, or stored only in accord with that
 written license.
  
 The following legend is applicable only to US Government
 contracts under FAR:
  
                    RESTRICTED RIGHTS LEGEND
  
 Use, reproduction and disclosure by the US Government is
 subject to restrictions as set forth in subparagraphs (a)
 and (c) of the Commercial Computer Software - Restricted
 Rights clause in FAR 52.227-19.
  
 Gaussian, Inc.
 340 Quinnipiac St., Bldg. 40, Wallingford CT 06492
  
  
 ---------------------------------------------------------------
 Warning -- This program may not be used in any manner that
 competes with the business of Gaussian, Inc. or will provide
 assistance to any competitor of Gaussian, Inc.  The licensee
 of this program is prohibited from giving any competitor of
 Gaussian, Inc. access to this program.  By using this program,
 the user acknowledges that Gaussian, Inc. is engaged in the
 business of creating and licensing software in the field of
 computational chemistry and represents and warrants to the
 licensee that it is not a competitor of Gaussian, Inc. and that
 it will not use this program in any manner prohibited above.
 ---------------------------------------------------------------
  

 Cite this work as:
 Gaussian 16, Revision C.01,
 M. J. Frisch, G. W. Trucks, H. B. Schlegel, G. E. Scuseria, 
 M. A. Robb, J. R. Cheeseman, G. Scalmani, V. Barone, 
 G. A. Petersson, H. Nakatsuji, X. Li, M. Caricato, A. V. Marenich, 
 J. Bloino, B. G. Janesko, R. Gomperts, B. Mennucci, H. P. Hratchian, 
 J. V. Ortiz, A. F. Izmaylov, J. L. Sonnenberg, D. Williams-Young, 
 F. Ding, F. Lipparini, F. Egidi, J. Goings, B. Peng, A. Petrone, 
 T. Henderson, D. Ranasinghe, V. G. Zakrzewski, J. Gao, N. Rega, 
 G. Zheng, W. Liang, M. Hada, M. Ehara, K. Toyota, R. Fukuda, 
 J. Hasegawa, M. Ishida, T. Nakajima, Y. Honda, O. Kitao, H. Nakai, 
 T. Vreven, K. Throssell, J. A. Montgomery, Jr., J. E. Peralta, 
 F. Ogliaro, M. J. Bearpark, J. J. Heyd, E. N. Brothers, K. N. Kudin, 
 V. N. Staroverov, T. A. Keith, R. Kobayashi, J. Normand, 
 K. Raghavachari, A. P. Rendell, J. C. Burant, S. S. Iyengar, 
 J. Tomasi, M. Cossi, J. M. Millam, M. Klene, C. Adamo, R. Cammi, 
 J. W. Ochterski, R. L. Martin, K. Morokuma, O. Farkas, 
 J. B. Foresman, and D. J. Fox, Gaussian, Inc., Wallingford CT, 2019.
 
 ******************************************
 Gaussian 16:  EM64W-G16RevC.01 30-May-2019
                12-Nov-2025 
 ******************************************
 %chk=C:\Users\al6323\OneDrive - Imperial College London\Desktop\TSR202511112\TS_
 guess_opt_TS(Berny)_IRS_DFT.chk
 Default route: MaxDisk=10GB
 -------------------------------------------------------------------
 # irc=(calcall,maxpoints=100) b3lyp/6-31g(d) nosymm scf=(xqc,tight)
 -------------------------------------------------------------------
 1/10=4,18=10,26=3,38=1,42=100,44=3,71=1,172=1/1,23;
 2/12=2,15=1,17=6,18=5,29=1,40=1/2;
 3/5=1,6=6,7=1,11=2,25=1,30=1,71=2,74=-5,140=1/1,2,3;
 4//1;
 5/5=2,8=3,13=1,32=2,38=5/2,8;
 8/6=4,10=90,11=11/1;
 11/6=1,8=1,9=11,15=111,16=1,31=1/1,2,10;
 10/6=1,13=1,31=1/2;
 6/7=2,8=2,9=2,10=2,18=1,28=1/1;
 7/10=1,25=1,30=1/1,2,3,16;
 1/10=4,18=10,26=3,42=100,44=3,71=1/23(2);
 2/15=1,29=1/2;
 99/5=20/99;
 2/15=1,29=1/2;
 3/5=1,6=6,7=1,11=2,25=1,30=1,71=2,74=-5,140=1/1,2,3;
 4/5=5,16=3,69=1/1;
 5/5=2,8=3,13=1,32=2,38=5/2,8;
 8/6=4,10=90,11=11/1;
 11/6=1,8=1,9=11,15=111,16=1,31=1/1,2,10;
 10/6=1,13=1,31=1/2;
 7/10=1,25=1,30=1/1,2,3,16;
 1/10=4,18=10,26=3,42=100,44=3,71=1/23(-8);
 2/15=1,29=1/2;
 6/7=2,8=2,9=2,10=2,18=1,19=2,28=1/1;
 99/5=20/99;
 ------------
 TS Benry DFT
 ------------
 Symbolic Z-matrix:
 Charge =  0 Multiplicity = 1
 C                    -0.69387   0.92512   0.0488 
 C                     0.04229  -0.17529  -0.35127 
 C                     1.44943  -0.1777   -0.33577 
 C                     2.18038   0.92017   0.08049 
 C                     1.4133    1.23661   2.19574 
 C                     0.02733   1.23886   2.18041 
 H                    -0.32135   1.92944  -0.11735 
 H                    -1.77537   0.85406   0.1355 
 H                    -0.46794  -1.13014  -0.46968 
 H                     1.95885  -1.1343   -0.443 
 H                     1.81508   1.92576  -0.09373 
 H                     3.25947   0.84539   0.19094 
 H                     1.95678   2.17435   2.26844 
 H                     1.951     0.36366   2.54829 
 H                    -0.51456   2.17836   2.24123 
 H                    -0.52081   0.36764   2.52096 
 
 IRC-IRC-IRC-IRC-IRC-IRC-IRC-IRC-IRC-IRC-IRC-IRC-IRC-IRC-IRC-IRC-IRC-IRC
 ------------------------------------------------------------------------
 INPUT DATA FOR L123
 ------------------------------------------------------------------------
 GENERAL PARAMETERS:
 Follow reaction path in both directions.
 Maximum points per path      = 100
 Step size                    =   0.100 bohr
 Integration scheme           = HPC                                 
    Redo corrector integration= Yes                                 
    DWI Weight Power          =  2
    DWI will use Hessian update vectors when possible.
    Max correction cycles     =  20
 Initial Hessian              = CalcFC
 Hessian evaluation           = Analytic at all predictor steps
                              = Update at all corrector steps
 Hessian updating method      = Bofill                              
 ------------------------------------------------------------------------
 IRC-IRC-IRC-IRC-IRC-IRC-IRC-IRC-IRC-IRC-IRC-IRC-IRC-IRC-IRC-IRC-IRC-IRC
                          Input orientation:                          
 ---------------------------------------------------------------------
 Center     Atomic      Atomic             Coordinates (Angstroms)
 Number     Number       Type             X           Y           Z
 ---------------------------------------------------------------------
      1          6           0       -0.693868    0.925122    0.048805
      2          6           0        0.042289   -0.175287   -0.351271
      3          6           0        1.449427   -0.177699   -0.335774
      4          6           0        2.180384    0.920173    0.080485
      5          6           0        1.413301    1.236610    2.195741
      6          6           0        0.027334    1.238856    2.180413
      7          1           0       -0.321352    1.929435   -0.117355
      8          1           0       -1.775374    0.854063    0.135505
      9          1           0       -0.467937   -1.130136   -0.469678
     10          1           0        1.958848   -1.134297   -0.442998
     11          1           0        1.815077    1.925763   -0.093733
     12          1           0        3.259471    0.845394    0.190936
     13          1           0        1.956776    2.174351    2.268440
     14          1           0        1.950996    0.363656    2.548291
     15          1           0       -0.514557    2.178357    2.241233
     16          1           0       -0.520813    0.367640    2.520963
 ---------------------------------------------------------------------
                    Distance matrix (angstroms):
                    1          2          3          4          5
     1  C    0.000000
     2  C    1.383072   0.000000
     3  C    2.440866   1.407225   0.000000
     4  C    2.874430   2.440880   1.383074   0.000000
     5  C    3.024321   3.218757   2.900024   2.272191   0.000000
     6  C    2.272072   2.899905   3.218722   3.024381   1.386054
     7  H    1.083984   2.148676   2.761047   2.704891   2.973120
     8  H    1.087301   2.144857   3.418476   3.956693   3.815569
     9  H    2.131656   1.089077   2.145076   3.394120   4.030508
    10  H    3.394109   2.145067   1.089076   2.131657   3.589117
    11  H    2.704885   2.761071   2.148682   1.083979   2.424468
    12  H    3.956696   3.418484   2.144854   1.087299   2.753295
    13  H    3.676039   4.006113   3.545627   2.531819   1.086282
    14  H    3.682116   3.512988   2.976989   2.540157   1.084184
    15  H    2.531697   3.545532   4.006145   3.676216   2.146065
    16  H    2.540138   2.976841   3.512860   3.682077   2.145152
                    6          7          8          9         10
     6  C    0.000000
     7  H    2.424503   0.000000
     8  H    2.753083   1.826073   0.000000
     9  H    3.588927   3.083277   2.452078   0.000000
    10  H    4.030495   3.832990   4.269971   2.426934   0.000000
    11  H    2.973148   2.136563   3.753989   3.833015   3.083281
    12  H    3.815697   3.753995   5.035157   4.269976   2.452075
    13  H    2.146077   3.307850   4.496834   4.929113   4.277740
    14  H    2.145178   3.836782   4.466304   4.146177   3.345405
    15  H    1.086281   2.379543   2.788818   4.277539   4.929149
    16  H    1.084185   3.072411   2.738785   3.345155   4.146034
                   11         12         13         14         15
    11  H    0.000000
    12  H    1.826063   0.000000
    13  H    2.379441   2.789116   0.000000
    14  H    3.072286   2.738850   1.832202   0.000000
    15  H    3.308031   4.497087   2.471486   3.076747   0.000000
    16  H    3.836765   4.466298   3.076754   2.471963   1.832207
                   16
    16  H    0.000000
 Symmetry turned off by external request.
 Stoichiometry    C6H10
 Framework group  C1[X(C6H10)]
 Deg. of freedom    42
 Full point group                 C1      NOp   1
 Rotational constants (GHZ):           4.3402283           3.4582530           2.2555103
 Standard basis: 6-31G(d) (6D, 7F)
   110 basis functions,   208 primitive gaussians,   110 cartesian basis functions
    23 alpha electrons       23 beta electrons
       nuclear repulsion energy       223.9819208905 Hartrees.
 NAtoms=   16 NActive=   16 NUniq=   16 SFac= 1.00D+00 NAtFMM=   60 NAOKFM=F Big=F
 Integral buffers will be    131072 words long.
 Raffenetti 2 integral format.
 Two-electron integral symmetry is turned off.
 One-electron integrals computed using PRISM.
 NBasis=   110 RedAO= T EigKep=  2.28D-03  NBF=   110
 NBsUse=   110 1.00D-06 EigRej= -1.00D+00 NBFU=   110
 ExpMin= 1.61D-01 ExpMax= 3.05D+03 ExpMxC= 4.57D+02 IAcc=3 IRadAn=         5 AccDes= 0.00D+00
 Harris functional with IExCor=  402 and IRadAn=       5 diagonalized for initial guess.
 HarFok:  IExCor=  402 AccDes= 0.00D+00 IRadAn=         5 IDoV= 1 UseB2=F ITyADJ=14
 ICtDFT=  3500011 ScaDFX=  1.000000  1.000000  1.000000  1.000000
 FoFCou: FMM=F IPFlag=           0 FMFlag=      100000 FMFlg1=           0
         NFxFlg=           0 DoJE=T BraDBF=F KetDBF=T FulRan=T
         wScrn=  0.000000 ICntrl=       500 IOpCl=  0 I1Cent=   200000004 NGrid=           0
         NMat0=    1 NMatS0=      1 NMatT0=    0 NMatD0=    1 NMtDS0=    0 NMtDT0=    0
 Symmetry not used in FoFCou.
 Requested convergence on RMS density matrix=1.00D-08 within  32 cycles.
 Requested convergence on MAX density matrix=1.00D-06.
 Requested convergence on             energy=1.00D-06.
 No special actions if energy rises.
 Integral accuracy reduced to 1.0D-05 until final iterations.
 Initial convergence to 1.0D-05 achieved.  Increase integral accuracy.
 SCF Done:  E(RB3LYP) =  -234.543882734     A.U. after   13 cycles
            NFock= 13  Conv=0.52D-08     -V/T= 2.0103
 QCSCF skips out because SCF is already converged.
 DoSCS=F DFT=T ScalE2(SS,OS)=  1.000000  1.000000
 Range of M.O.s used for correlation:     1   110
 NBasis=   110 NAE=    23 NBE=    23 NFC=     0 NFV=     0
 NROrb=    110 NOA=    23 NOB=    23 NVA=    87 NVB=    87
 Symmetrizing basis deriv contribution to polar:
 IMax=3 JMax=2 DiffMx= 0.00D+00
 G2DrvN: will do    17 centers at a time, making    1 passes.
 Calling FoFCou, ICntrl=  3107 FMM=F I1Cent=   0 AccDes= 0.00D+00.
 End of G2Drv F.D. properties file   721 does not exist.
 End of G2Drv F.D. properties file   722 does not exist.
 End of G2Drv F.D. properties file   788 does not exist.
          IDoAtm=1111111111111111
          Differentiating once with respect to nuclear coordinates.
 Keep R1 ints in memory in canonical form, NReq=26109314.
          There are    51 degrees of freedom in the 1st order CPHF.  IDoFFX=6 NUNeed=     0.
     45 vectors produced by pass  0 Test12= 3.92D-15 1.96D-09 XBig12= 9.45D-02 1.15D-01.
 AX will form    45 AO Fock derivatives at one time.
     45 vectors produced by pass  1 Test12= 3.92D-15 1.96D-09 XBig12= 1.61D-02 3.64D-02.
     45 vectors produced by pass  2 Test12= 3.92D-15 1.96D-09 XBig12= 1.14D-04 2.92D-03.
     45 vectors produced by pass  3 Test12= 3.92D-15 1.96D-09 XBig12= 2.16D-07 7.16D-05.
     45 vectors produced by pass  4 Test12= 3.92D-15 1.96D-09 XBig12= 1.39D-10 1.60D-06.
     20 vectors produced by pass  5 Test12= 3.92D-15 1.96D-09 XBig12= 6.50D-14 3.52D-08.
 InvSVY:  IOpt=1 It=  1 EMax= 8.33D-16
 Solved reduced A of dimension   245 with    51 vectors.
 End of Minotr F.D. properties file   721 does not exist.
 End of Minotr F.D. properties file   722 does not exist.
 End of Minotr F.D. properties file   788 does not exist.

 **********************************************************************

            Population analysis using the SCF Density.

 **********************************************************************

 Alpha  occ. eigenvalues --  -10.18530 -10.18529 -10.18097 -10.18038 -10.17570
 Alpha  occ. eigenvalues --  -10.17520  -0.80026  -0.73932  -0.71080  -0.61714
 Alpha  occ. eigenvalues --   -0.57582  -0.51485  -0.48499  -0.45842  -0.42156
 Alpha  occ. eigenvalues --   -0.40123  -0.39990  -0.36126  -0.35004  -0.33746
 Alpha  occ. eigenvalues --   -0.33508  -0.22110  -0.21893
 Alpha virt. eigenvalues --   -0.00859   0.01958   0.09611   0.10981   0.12510
 Alpha virt. eigenvalues --    0.14390   0.14674   0.15217   0.17258   0.20354
 Alpha virt. eigenvalues --    0.20553   0.23971   0.25002   0.29347   0.32424
 Alpha virt. eigenvalues --    0.36491   0.43182   0.46604   0.50501   0.52392
 Alpha virt. eigenvalues --    0.55561   0.57713   0.58425   0.61580   0.62704
 Alpha virt. eigenvalues --    0.64308   0.65792   0.67245   0.67542   0.73026
 Alpha virt. eigenvalues --    0.74529   0.82102   0.85457   0.86438   0.86460
 Alpha virt. eigenvalues --    0.86721   0.88481   0.89386   0.93856   0.95407
 Alpha virt. eigenvalues --    0.96126   0.98970   1.00752   1.05967   1.07041
 Alpha virt. eigenvalues --    1.11172   1.16084   1.23218   1.28853   1.38668
 Alpha virt. eigenvalues --    1.39795   1.49552   1.52973   1.60927   1.61228
 Alpha virt. eigenvalues --    1.73958   1.76495   1.82972   1.92178   1.93226
 Alpha virt. eigenvalues --    1.96102   1.97577   1.99285   2.03562   2.05344
 Alpha virt. eigenvalues --    2.09033   2.13050   2.19524   2.19774   2.25199
 Alpha virt. eigenvalues --    2.27784   2.27831   2.43192   2.52855   2.57659
 Alpha virt. eigenvalues --    2.60458   2.60923   2.67122   2.70070   2.87021
 Alpha virt. eigenvalues --    3.05002   4.12012   4.22897   4.27926   4.28739
 Alpha virt. eigenvalues --    4.43252   4.53694
          Condensed to atoms (all electrons):
               1          2          3          4          5          6
     1  C    5.097539   0.564514  -0.043043  -0.030615  -0.014202   0.090641
     2  C    0.564514   4.789088   0.546456  -0.043042  -0.022228  -0.013618
     3  C   -0.043043   0.546456   4.789077   0.564520  -0.013610  -0.022226
     4  C   -0.030615  -0.043042   0.564520   5.097535   0.090631  -0.014198
     5  C   -0.014202  -0.022228  -0.013610   0.090631   5.023104   0.570255
     6  C    0.090641  -0.013618  -0.022226  -0.014198   0.570255   5.023099
     7  H    0.370666  -0.029616  -0.013393   0.005837  -0.006336  -0.013436
     8  H    0.362285  -0.026897   0.005466   0.000390   0.000938  -0.004599
     9  H   -0.059615   0.369501  -0.045289   0.006652  -0.000100   0.000600
    10  H    0.006652  -0.045290   0.369500  -0.059614   0.000600  -0.000100
    11  H    0.005838  -0.013393  -0.029616   0.370665  -0.013433  -0.006335
    12  H    0.000390   0.005466  -0.026897   0.362286  -0.004597   0.000937
    13  H    0.000868   0.000524   0.000309  -0.008632   0.376821  -0.038185
    14  H    0.000601   0.000448  -0.002513  -0.007003   0.382183  -0.034303
    15  H   -0.008635   0.000309   0.000524   0.000869  -0.038184   0.376820
    16  H   -0.007007  -0.002513   0.000448   0.000601  -0.034305   0.382181
               7          8          9         10         11         12
     1  C    0.370666   0.362285  -0.059615   0.006652   0.005838   0.000390
     2  C   -0.029616  -0.026897   0.369501  -0.045290  -0.013393   0.005466
     3  C   -0.013393   0.005466  -0.045289   0.369500  -0.029616  -0.026897
     4  C    0.005837   0.000390   0.006652  -0.059614   0.370665   0.362286
     5  C   -0.006336   0.000938  -0.000100   0.000600  -0.013433  -0.004597
     6  C   -0.013436  -0.004599   0.000600  -0.000100  -0.006335   0.000937
     7  H    0.564554  -0.043167   0.005452  -0.000012   0.005137  -0.000092
     8  H   -0.043167   0.573319  -0.007310  -0.000159  -0.000092  -0.000007
     9  H    0.005452  -0.007310   0.617441  -0.008002  -0.000012  -0.000159
    10  H   -0.000012  -0.000159  -0.008002   0.617442   0.005452  -0.007310
    11  H    0.005137  -0.000092  -0.000012   0.005452   0.564554  -0.043168
    12  H   -0.000092  -0.000007  -0.000159  -0.007310  -0.043168   0.573319
    13  H    0.000434  -0.000025   0.000006  -0.000044  -0.002769   0.000388
    14  H   -0.000001  -0.000023  -0.000006   0.000399   0.000917  -0.000780
    15  H   -0.002769   0.000387  -0.000044   0.000006   0.000433  -0.000025
    16  H    0.000918  -0.000780   0.000400  -0.000006  -0.000001  -0.000023
              13         14         15         16
     1  C    0.000868   0.000601  -0.008635  -0.007007
     2  C    0.000524   0.000448   0.000309  -0.002513
     3  C    0.000309  -0.002513   0.000524   0.000448
     4  C   -0.008632  -0.007003   0.000869   0.000601
     5  C    0.376821   0.382183  -0.038184  -0.034305
     6  C   -0.038185  -0.034303   0.376820   0.382181
     7  H    0.000434  -0.000001  -0.002769   0.000918
     8  H   -0.000025  -0.000023   0.000387  -0.000780
     9  H    0.000006  -0.000006  -0.000044   0.000400
    10  H   -0.000044   0.000399   0.000006  -0.000006
    11  H   -0.002769   0.000917   0.000433  -0.000001
    12  H    0.000388  -0.000780  -0.000025  -0.000023
    13  H    0.570651  -0.042359  -0.008124   0.004828
    14  H   -0.042359   0.553314   0.004827  -0.007936
    15  H   -0.008124   0.004827   0.570647  -0.042357
    16  H    0.004828  -0.007936  -0.042357   0.553322
 Mulliken charges:
               1
     1  C   -0.336878
     2  C   -0.079709
     3  C   -0.079714
     4  C   -0.336881
     5  C   -0.297536
     6  C   -0.297532
     7  H    0.155823
     8  H    0.140275
     9  H    0.120485
    10  H    0.120484
    11  H    0.155821
    12  H    0.140272
    13  H    0.145310
    14  H    0.152234
    15  H    0.145316
    16  H    0.152231
 Sum of Mulliken charges =   0.00000
 Mulliken charges with hydrogens summed into heavy atoms:
               1
     1  C   -0.040780
     2  C    0.040775
     3  C    0.040770
     4  C   -0.040788
     5  C    0.000008
     6  C    0.000015
 APT charges:
               1
     1  C   -0.752580
     2  C   -0.553378
     3  C   -0.529594
     4  C   -0.740047
     5  C   -0.941907
     6  C   -0.958864
     7  H    0.443028
     8  H    0.428364
     9  H    0.340952
    10  H    0.437867
    11  H    0.374254
    12  H    0.639527
    13  H    0.607445
    14  H    0.410255
    15  H    0.496747
    16  H    0.297932
 Sum of APT charges =   0.00000
 APT charges with hydrogens summed into heavy atoms:
               1
     1  C    0.118812
     2  C   -0.212426
     3  C   -0.091727
     4  C    0.273733
     5  C    0.075793
     6  C   -0.164186
 Electronic spatial extent (au):  <R**2>=            861.9560
 Charge=              0.0000 electrons
 Dipole moment (field-independent basis, Debye):
    X=             -0.0036    Y=              0.1907    Z=              0.3455  Tot=              0.3946
 Quadrupole moment (field-independent basis, Debye-Ang):
   XX=            -35.6333   YY=            -35.1540   ZZ=            -41.4409
   XY=              0.1401   XZ=              0.3207   YZ=              0.1930
 Traceless Quadrupole moment (field-independent basis, Debye-Ang):
   XX=              1.7761   YY=              2.2554   ZZ=             -4.0315
   XY=              0.1401   XZ=              0.3207   YZ=              0.1930
 Octapole moment (field-independent basis, Debye-Ang**2):
  XXX=            -78.7220  YYY=            -73.7995  ZZZ=            -83.8446  XYY=            -25.8575
  XXY=            -25.3280  XXZ=            -22.7321  XZZ=            -30.3998  YZZ=            -30.6624
  YYZ=            -25.3118  XYZ=              0.1969
 Hexadecapole moment (field-independent basis, Debye-Ang**3):
 XXXX=           -429.5370 YYYY=           -261.7502 ZZZZ=           -486.7263 XXXY=            -55.3712
 XXXZ=            -50.3677 YYYX=            -53.5355 YYYZ=           -108.5685 ZZZX=            -61.3782
 ZZZY=           -130.7683 XXYY=           -116.7546 XXZZ=           -151.7624 YYZZ=           -123.0853
 XXYZ=            -34.7793 YYXZ=            -18.5766 ZZXY=            -22.0817
 N-N= 2.239819208905D+02 E-N=-9.900881158458D+02  KE= 2.321594207694D+02
  Exact polarizability:       0.000       0.000       0.000       0.000       0.000       0.000
 Approx polarizability:     137.834      -0.402      96.850       0.381      30.263     107.972
 Calling FoFJK, ICntrl=    100127 FMM=F ISym2X=0 I1Cent= 0 IOpClX= 0 NMat=1 NMatS=1 NMatT=0.
 -------------------------------------------------------------------
 Center     Atomic                   Forces (Hartrees/Bohr)
 Number     Number              X              Y              Z
 -------------------------------------------------------------------
      1        6           0.000000558    0.000000913    0.000000032
      2        6           0.000001453    0.000000099   -0.000000593
      3        6          -0.000000147   -0.000000204    0.000000361
      4        6           0.000000514    0.000000647    0.000002248
      5        6           0.000000076   -0.000000756   -0.000000548
      6        6          -0.000001925   -0.000000564   -0.000001400
      7        1           0.000000329    0.000000666    0.000000103
      8        1           0.000000480    0.000000540   -0.000002226
      9        1           0.000000691    0.000000922   -0.000002305
     10        1           0.000000621    0.000000612   -0.000000593
     11        1           0.000001216    0.000000426    0.000001658
     12        1           0.000000456   -0.000000100    0.000001316
     13        1          -0.000001053   -0.000000889    0.000002192
     14        1          -0.000001160   -0.000001028    0.000000543
     15        1          -0.000000707   -0.000000601    0.000000421
     16        1          -0.000001401   -0.000000685   -0.000001210
 -------------------------------------------------------------------
 Cartesian Forces:  Max     0.000002305 RMS     0.000001030
 IRC-IRC-IRC-IRC-IRC-IRC-IRC-IRC-IRC-IRC-IRC-IRC-IRC-IRC-IRC-IRC-IRC-IRC
          ******** Start new reaction path calculation ********
 Supplied step size of   0.1000 bohr.
    Integration on MW PES will use step size of   0.2866 sqrt(amu)*bohr.
 Point Number:   0          Path Number:   1
 Calculating another point on the path.
 IRC-IRC-IRC-IRC-IRC-IRC-IRC-IRC-IRC-IRC-IRC-IRC-IRC-IRC-IRC-IRC-IRC-IRC
                          Input orientation:                          
 ---------------------------------------------------------------------
 Center     Atomic      Atomic             Coordinates (Angstroms)
 Number     Number       Type             X           Y           Z
 ---------------------------------------------------------------------
      1          6           0       -1.424023    0.246067   -0.597842
      2          6           0       -0.690287   -0.859175   -1.016448
      3          6           0        0.709606   -0.861575   -1.001027
      4          6           0        1.437761    0.241140   -0.566318
      5          6           0        0.682833    0.550029    1.508974
      6          6           0       -0.714139    0.552294    1.493521
      7          1           0       -1.059516    1.248792   -0.795360
      8          1           0       -2.506337    0.173997   -0.517870
      9          1           0       -1.204589   -1.810905   -1.142316
     10          1           0        1.223274   -1.815070   -1.115612
     11          1           0        1.081156    1.245120   -0.771723
     12          1           0        2.517796    0.165338   -0.462560
     13          1           0        1.218012    1.490801    1.607934
     14          1           0        1.212712   -0.317217    1.888498
     15          1           0       -1.248300    1.494799    1.580790
     16          1           0       -1.255046   -0.313238    1.861218
 ---------------------------------------------------------------------
                    Distance matrix (angstroms):
                    1          2          3          4          5
     1  C    0.000000
     2  C    1.391101   0.000000
     3  C    2.437581   1.399980   0.000000
     4  C    2.861962   2.437601   1.391101   0.000000
     5  C    2.994981   3.201417   2.879835   2.229835   0.000000
     6  C    2.229688   2.879715   3.201382   2.995067   1.397059
     7  H    1.085051   2.151450   2.761474   2.702631   2.972205
     8  H    1.087654   2.148037   3.412937   3.944967   3.797407
     9  H    2.139097   1.089100   2.141339   3.394801   4.020660
    10  H    3.394784   2.141328   1.089099   2.139095   3.574104
    11  H    2.702641   2.761514   2.151463   1.085050   2.417311
    12  H    3.944966   3.412948   2.148034   1.087652   2.720666
    13  H    3.659940   4.006417   3.549483   2.517403   1.086858
    14  H    3.667635   3.514802   2.983085   2.527554   1.084862
    15  H    2.517270   3.549397   4.006454   3.660145   2.151052
    16  H    2.527519   2.982945   3.514681   3.667626   2.150508
                    6          7          8          9         10
     6  C    0.000000
     7  H    2.417306   0.000000
     8  H    2.720437   1.823588   0.000000
     9  H    3.573918   3.082721   2.454449   0.000000
    10  H    4.020641   3.834181   4.268921   2.428013   0.000000
    11  H    2.972276   2.140806   3.752580   3.834222   3.082728
    12  H    3.797550   3.752571   5.024445   4.268929   2.454440
    13  H    2.151068   3.319869   4.485955   4.932964   4.283283
    14  H    2.150537   3.849480   4.456817   4.154549   3.356836
    15  H    1.086858   2.396299   2.780566   4.283094   4.933001
    16  H    1.084864   3.087973   2.731883   3.356601   4.154406
                   11         12         13         14         15
    11  H    0.000000
    12  H    1.823580   0.000000
    13  H    2.396218   2.780870   0.000000
    14  H    3.087876   2.731955   1.829665   0.000000
    15  H    3.320094   4.486226   2.466465   3.071590   0.000000
    16  H    3.849507   4.456829   3.071600   2.467912   1.829668
                   16
    16  H    0.000000
 Symmetry turned off by external request.
 Stoichiometry    C6H10
 Framework group  C1[X(C6H10)]
 Deg. of freedom    42
 Full point group                 C1      NOp   1
 Rotational constants (GHZ):           4.3618902           3.5060703           2.2786958
 Standard basis: 6-31G(d) (6D, 7F)
   110 basis functions,   208 primitive gaussians,   110 cartesian basis functions
    23 alpha electrons       23 beta electrons
       nuclear repulsion energy       224.4853735761 Hartrees.
 NAtoms=   16 NActive=   16 NUniq=   16 SFac= 1.00D+00 NAtFMM=   60 NAOKFM=F Big=F
 Integral buffers will be    131072 words long.
 Raffenetti 2 integral format.
 Two-electron integral symmetry is turned off.
 One-electron integrals computed using PRISM.
 NBasis=   110 RedAO= T EigKep=  2.27D-03  NBF=   110
 NBsUse=   110 1.00D-06 EigRej= -1.00D+00 NBFU=   110
 Initial guess from the checkpoint file:  "C:\Users\al6323\OneDrive - Imperial College London\Desktop\TSR202511112\TS_guess_opt_TS(Berny)_IRS_DFT.chk"
 B after Tr=    -1.391194   -1.290058   -1.258595
         Rot=    1.000000   -0.000048    0.000000    0.000000 Ang=  -0.01 deg.
 ExpMin= 1.61D-01 ExpMax= 3.05D+03 ExpMxC= 4.57D+02 IAcc=3 IRadAn=         5 AccDes= 0.00D+00
 Harris functional with IExCor=  402 and IRadAn=       5 diagonalized for initial guess.
 HarFok:  IExCor=  402 AccDes= 0.00D+00 IRadAn=         5 IDoV= 1 UseB2=F ITyADJ=14
 ICtDFT=  3500011 ScaDFX=  1.000000  1.000000  1.000000  1.000000
 FoFCou: FMM=F IPFlag=           0 FMFlag=      100000 FMFlg1=           0
         NFxFlg=           0 DoJE=T BraDBF=F KetDBF=T FulRan=T
         wScrn=  0.000000 ICntrl=       500 IOpCl=  0 I1Cent=   200000004 NGrid=           0
         NMat0=    1 NMatS0=      1 NMatT0=    0 NMatD0=    1 NMtDS0=    0 NMtDT0=    0
 Symmetry not used in FoFCou.
 Requested convergence on RMS density matrix=1.00D-08 within  32 cycles.
 Requested convergence on MAX density matrix=1.00D-06.
 Requested convergence on             energy=1.00D-06.
 No special actions if energy rises.
 Integral accuracy reduced to 1.0D-05 until final iterations.
 Initial convergence to 1.0D-05 achieved.  Increase integral accuracy.
 SCF Done:  E(RB3LYP) =  -234.544347400     A.U. after   12 cycles
            NFock= 12  Conv=0.48D-08     -V/T= 2.0105
 QCSCF skips out because SCF is already converged.
 DoSCS=F DFT=T ScalE2(SS,OS)=  1.000000  1.000000
 Range of M.O.s used for correlation:     1   110
 NBasis=   110 NAE=    23 NBE=    23 NFC=     0 NFV=     0
 NROrb=    110 NOA=    23 NOB=    23 NVA=    87 NVB=    87
 Symmetrizing basis deriv contribution to polar:
 IMax=3 JMax=2 DiffMx= 0.00D+00
 G2DrvN: will do    17 centers at a time, making    1 passes.
 Calling FoFCou, ICntrl=  3107 FMM=F I1Cent=   0 AccDes= 0.00D+00.
 End of G2Drv F.D. properties file   721 does not exist.
 End of G2Drv F.D. properties file   722 does not exist.
 End of G2Drv F.D. properties file   788 does not exist.
          IDoAtm=1111111111111111
          Differentiating once with respect to nuclear coordinates.
 Keep R1 ints in memory in canonical form, NReq=26109314.
          There are    51 degrees of freedom in the 1st order CPHF.  IDoFFX=6 NUNeed=     0.
     45 vectors produced by pass  0 Test12= 3.92D-15 1.96D-09 XBig12= 9.32D-02 1.16D-01.
 AX will form    45 AO Fock derivatives at one time.
     45 vectors produced by pass  1 Test12= 3.92D-15 1.96D-09 XBig12= 1.64D-02 3.36D-02.
     45 vectors produced by pass  2 Test12= 3.92D-15 1.96D-09 XBig12= 1.15D-04 2.79D-03.
     45 vectors produced by pass  3 Test12= 3.92D-15 1.96D-09 XBig12= 2.15D-07 7.92D-05.
     45 vectors produced by pass  4 Test12= 3.92D-15 1.96D-09 XBig12= 1.37D-10 1.59D-06.
     21 vectors produced by pass  5 Test12= 3.92D-15 1.96D-09 XBig12= 6.34D-14 3.64D-08.
 InvSVY:  IOpt=1 It=  1 EMax= 7.77D-16
 Solved reduced A of dimension   246 with    51 vectors.
 End of Minotr F.D. properties file   721 does not exist.
 End of Minotr F.D. properties file   722 does not exist.
 End of Minotr F.D. properties file   788 does not exist.
 Calling FoFJK, ICntrl=    100127 FMM=F ISym2X=0 I1Cent= 0 IOpClX= 0 NMat=1 NMatS=1 NMatT=0.
 -------------------------------------------------------------------
 Center     Atomic                   Forces (Hartrees/Bohr)
 Number     Number              X              Y              Z
 -------------------------------------------------------------------
      1        6           0.001546232    0.001472006    0.005068280
      2        6           0.001022194   -0.000487738    0.000215615
      3        6          -0.001027227   -0.000484330    0.000194786
      4        6          -0.001648588    0.001477631    0.005027889
      5        6           0.002299219   -0.000932742   -0.005254152
      6        6          -0.002190387   -0.000924876   -0.005305530
      7        1          -0.000178223   -0.000222774   -0.000244503
      8        1           0.000108523    0.000052007    0.000232547
      9        1          -0.000001997    0.000075199   -0.000198030
     10        1           0.000007879    0.000074767   -0.000196058
     11        1           0.000184056   -0.000224414   -0.000238624
     12        1          -0.000112380    0.000051565    0.000233663
     13        1          -0.000189304   -0.000174343    0.000143912
     14        1          -0.000184948    0.000211491    0.000085725
     15        1           0.000183854   -0.000174732    0.000146501
     16        1           0.000181095    0.000211285    0.000087980
 -------------------------------------------------------------------
 Cartesian Forces:  Max     0.005305530 RMS     0.001655177
 IRC-IRC-IRC-IRC-IRC-IRC-IRC-IRC-IRC-IRC-IRC-IRC-IRC-IRC-IRC-IRC-IRC-IRC
 Pt  1 Step number   1 out of a maximum of  20
 Modified Bulirsch-Stoer Extrapolation Cycles:
    EPS =    0.000010000000000
      PEZero:  N= 2 I= 1 D=  7.46D-04 Err=  1.05D-03
      PEZero:  N= 3 I= 2 D=  7.46D-04 Err=  7.01D-04
      PEZero:  N= 3 I= 1 D=  1.49D-03 Err=  9.67D-08
 Maximum DWI energy   std dev =  0.000004508 at pt    43
 Maximum DWI gradient std dev =  0.051315482 at pt    40
 CORRECTOR INTEGRATION CONVERGENCE:
   Recorrection delta-x convergence threshold:    0.010000
   Delta-x Convergence Met
 Point Number:   1          Path Number:   1
   CHANGE IN THE REACTION COORDINATE =    0.28651
   NET REACTION COORDINATE UP TO THIS POINT =    0.28651
  # OF POINTS ALONG THE PATH =   1
  # OF STEPS =   1

 Calculating another point on the path.
 IRC-IRC-IRC-IRC-IRC-IRC-IRC-IRC-IRC-IRC-IRC-IRC-IRC-IRC-IRC-IRC-IRC-IRC
                          Input orientation:                          
 ---------------------------------------------------------------------
 Center     Atomic      Atomic             Coordinates (Angstroms)
 Number     Number       Type             X           Y           Z
 ---------------------------------------------------------------------
      1          6           0       -1.418354    0.250290   -0.578475
      2          6           0       -0.686518   -0.860600   -1.015598
      3          6           0        0.705827   -0.862988   -1.000247
      4          6           0        1.431703    0.245376   -0.547080
      5          6           0        0.689523    0.546526    1.488636
      6          6           0       -0.720424    0.548820    1.473021
      7          1           0       -1.062890    1.250252   -0.808289
      8          1           0       -2.501599    0.176420   -0.507198
      9          1           0       -1.205264   -1.808566   -1.151180
     10          1           0        1.224168   -1.812739   -1.124408
     11          1           0        1.084856    1.246570   -0.784546
     12          1           0        2.512846    0.167749   -0.451906
     13          1           0        1.214727    1.490082    1.615464
     14          1           0        1.209930   -0.314641    1.895567
     15          1           0       -1.245215    1.494078    1.588350
     16          1           0       -1.252477   -0.310657    1.868301
 ---------------------------------------------------------------------
                    Distance matrix (angstroms):
                    1          2          3          4          5
     1  C    0.000000
     2  C    1.400263   0.000000
     3  C    2.435040   1.392431   0.000000
     4  C    2.850234   2.435067   1.400260   0.000000
     5  C    2.967128   3.185071   2.860338   2.187616   0.000000
     6  C    2.187432   2.860216   3.185034   2.967244   1.410036
     7  H    1.085860   2.154142   2.762425   2.702036   2.973558
     8  H    1.088098   2.151372   3.407499   3.934109   3.782010
     9  H    2.147624   1.089091   2.137561   3.396647   4.013142
    10  H    3.396624   2.137552   1.089092   2.147607   3.560895
    11  H    2.702054   2.762483   2.154165   1.085856   2.411163
    12  H    3.934102   3.407517   2.151374   1.088096   2.689550
    13  H    3.644662   4.007857   3.554977   2.504590   1.087300
    14  H    3.653478   3.517025   2.990074   2.515815   1.085368
    15  H    2.504419   3.554883   4.007887   3.644888   2.156620
    16  H    2.515728   2.989920   3.516900   3.653500   2.156450
                    6          7          8          9         10
     6  C    0.000000
     7  H    2.411154   0.000000
     8  H    2.689337   1.820345   0.000000
     9  H    3.560726   3.081268   2.456698   0.000000
    10  H    4.013108   3.835685   4.268377   2.429583   0.000000
    11  H    2.973634   2.147880   3.752973   3.835743   3.081280
    12  H    3.782141   3.752960   5.014757   4.268388   2.456680
    13  H    2.156635   3.334612   4.476883   4.938801   4.291342
    14  H    2.156473   3.863345   4.448580   4.165050   3.371164
    15  H    1.087299   2.415899   2.775976   4.291163   4.938821
    16  H    1.085369   3.104273   2.727736   3.370939   4.164893
                   11         12         13         14         15
    11  H    0.000000
    12  H    1.820346   0.000000
    13  H    2.415826   2.776274   0.000000
    14  H    3.104195   2.727805   1.826336   0.000000
    15  H    3.334835   4.477144   2.460095   3.064895   0.000000
    16  H    3.863376   4.448583   3.064911   2.462561   1.826333
                   16
    16  H    0.000000
 Symmetry turned off by external request.
 Stoichiometry    C6H10
 Framework group  C1[X(C6H10)]
 Deg. of freedom    42
 Full point group                 C1      NOp   1
 Rotational constants (GHZ):           4.3812935           3.5520993           2.3003992
 Standard basis: 6-31G(d) (6D, 7F)
   110 basis functions,   208 primitive gaussians,   110 cartesian basis functions
    23 alpha electrons       23 beta electrons
       nuclear repulsion energy       224.9351510736 Hartrees.
 NAtoms=   16 NActive=   16 NUniq=   16 SFac= 1.00D+00 NAtFMM=   60 NAOKFM=F Big=F
 Integral buffers will be    131072 words long.
 Raffenetti 2 integral format.
 Two-electron integral symmetry is turned off.
 One-electron integrals computed using PRISM.
 NBasis=   110 RedAO= T EigKep=  2.27D-03  NBF=   110
 NBsUse=   110 1.00D-06 EigRej= -1.00D+00 NBFU=   110
 Initial guess from the checkpoint file:  "C:\Users\al6323\OneDrive - Imperial College London\Desktop\TSR202511112\TS_guess_opt_TS(Berny)_IRS_DFT.chk"
 B after Tr=    -0.000001    0.000335    0.000141
         Rot=    1.000000   -0.000072    0.000006    0.000001 Ang=  -0.01 deg.
 ExpMin= 1.61D-01 ExpMax= 3.05D+03 ExpMxC= 4.57D+02 IAcc=3 IRadAn=         5 AccDes= 0.00D+00
 Harris functional with IExCor=  402 and IRadAn=       5 diagonalized for initial guess.
 HarFok:  IExCor=  402 AccDes= 0.00D+00 IRadAn=         5 IDoV= 1 UseB2=F ITyADJ=14
 ICtDFT=  3500011 ScaDFX=  1.000000  1.000000  1.000000  1.000000
 FoFCou: FMM=F IPFlag=           0 FMFlag=      100000 FMFlg1=           0
         NFxFlg=           0 DoJE=T BraDBF=F KetDBF=T FulRan=T
         wScrn=  0.000000 ICntrl=       500 IOpCl=  0 I1Cent=   200000004 NGrid=           0
         NMat0=    1 NMatS0=      1 NMatT0=    0 NMatD0=    1 NMtDS0=    0 NMtDT0=    0
 Symmetry not used in FoFCou.
 Requested convergence on RMS density matrix=1.00D-08 within  32 cycles.
 Requested convergence on MAX density matrix=1.00D-06.
 Requested convergence on             energy=1.00D-06.
 No special actions if energy rises.
 Integral accuracy reduced to 1.0D-05 until final iterations.
 Initial convergence to 1.0D-05 achieved.  Increase integral accuracy.
 SCF Done:  E(RB3LYP) =  -234.545864281     A.U. after   12 cycles
            NFock= 12  Conv=0.56D-08     -V/T= 2.0107
 QCSCF skips out because SCF is already converged.
 DoSCS=F DFT=T ScalE2(SS,OS)=  1.000000  1.000000
 Range of M.O.s used for correlation:     1   110
 NBasis=   110 NAE=    23 NBE=    23 NFC=     0 NFV=     0
 NROrb=    110 NOA=    23 NOB=    23 NVA=    87 NVB=    87
 Symmetrizing basis deriv contribution to polar:
 IMax=3 JMax=2 DiffMx= 0.00D+00
 G2DrvN: will do    17 centers at a time, making    1 passes.
 Calling FoFCou, ICntrl=  3107 FMM=F I1Cent=   0 AccDes= 0.00D+00.
 End of G2Drv F.D. properties file   721 does not exist.
 End of G2Drv F.D. properties file   722 does not exist.
 End of G2Drv F.D. properties file   788 does not exist.
          IDoAtm=1111111111111111
          Differentiating once with respect to nuclear coordinates.
 Keep R1 ints in memory in canonical form, NReq=26109314.
          There are    51 degrees of freedom in the 1st order CPHF.  IDoFFX=6 NUNeed=     0.
     45 vectors produced by pass  0 Test12= 3.92D-15 1.96D-09 XBig12= 9.15D-02 1.14D-01.
 AX will form    45 AO Fock derivatives at one time.
     45 vectors produced by pass  1 Test12= 3.92D-15 1.96D-09 XBig12= 1.65D-02 3.11D-02.
     45 vectors produced by pass  2 Test12= 3.92D-15 1.96D-09 XBig12= 1.16D-04 2.65D-03.
     45 vectors produced by pass  3 Test12= 3.92D-15 1.96D-09 XBig12= 2.04D-07 8.39D-05.
     45 vectors produced by pass  4 Test12= 3.92D-15 1.96D-09 XBig12= 1.31D-10 1.60D-06.
     21 vectors produced by pass  5 Test12= 3.92D-15 1.96D-09 XBig12= 6.24D-14 3.46D-08.
 InvSVY:  IOpt=1 It=  1 EMax= 5.55D-16
 Solved reduced A of dimension   246 with    51 vectors.
 End of Minotr F.D. properties file   721 does not exist.
 End of Minotr F.D. properties file   722 does not exist.
 End of Minotr F.D. properties file   788 does not exist.
 Calling FoFJK, ICntrl=    100127 FMM=F ISym2X=0 I1Cent= 0 IOpClX= 0 NMat=1 NMatS=1 NMatT=0.
 -------------------------------------------------------------------
 Center     Atomic                   Forces (Hartrees/Bohr)
 Number     Number              X              Y              Z
 -------------------------------------------------------------------
      1        6           0.003284756    0.002798596    0.011111294
      2        6           0.002088431   -0.000947477    0.000501976
      3        6          -0.002099358   -0.000941002    0.000458825
      4        6          -0.003512593    0.002808121    0.011028587
      5        6           0.004428407   -0.001976710   -0.011572104
      6        6          -0.004187693   -0.001960470   -0.011673215
      7        1          -0.000278616   -0.000217027   -0.000561887
      8        1           0.000237698    0.000107311    0.000511189
      9        1          -0.000020339    0.000154601   -0.000455135
     10        1           0.000031156    0.000154141   -0.000453968
     11        1           0.000290508   -0.000218015   -0.000555595
     12        1          -0.000247740    0.000107767    0.000506417
     13        1          -0.000291311   -0.000220266    0.000326647
     14        1          -0.000264867    0.000286042    0.000244242
     15        1           0.000282646   -0.000220650    0.000333132
     16        1           0.000258917    0.000285037    0.000249594
 -------------------------------------------------------------------
 Cartesian Forces:  Max     0.011673215 RMS     0.003573428
 IRC-IRC-IRC-IRC-IRC-IRC-IRC-IRC-IRC-IRC-IRC-IRC-IRC-IRC-IRC-IRC-IRC-IRC
 Pt  2 Step number   1 out of a maximum of  20
 Modified Bulirsch-Stoer Extrapolation Cycles:
    EPS =    0.000010000000000
      PEZero:  N= 2 I= 1 D=  1.49D-03 Err=  1.33D-05
      PEZero:  N= 3 I= 2 D=  1.49D-03 Err=  8.86D-06
      PEZero:  N= 3 I= 1 D=  2.98D-03 Err=  3.77D-08
 Maximum DWI energy   std dev =  0.000003773 at pt    69
 Maximum DWI gradient std dev =  0.025330248 at pt    11
 CORRECTOR INTEGRATION CONVERGENCE:
   Recorrection delta-x convergence threshold:    0.010000
   Delta-x Convergence Met
 Point Number:   2          Path Number:   1
   CHANGE IN THE REACTION COORDINATE =    0.28643
   NET REACTION COORDINATE UP TO THIS POINT =    0.57294
  # OF POINTS ALONG THE PATH =   2
  # OF STEPS =   1

 Calculating another point on the path.
 IRC-IRC-IRC-IRC-IRC-IRC-IRC-IRC-IRC-IRC-IRC-IRC-IRC-IRC-IRC-IRC-IRC-IRC
                          Input orientation:                          
 ---------------------------------------------------------------------
 Center     Atomic      Atomic             Coordinates (Angstroms)
 Number     Number       Type             X           Y           Z
 ---------------------------------------------------------------------
      1          6           0       -1.412846    0.254647   -0.559120
      2          6           0       -0.682843   -0.862176   -1.014702
      3          6           0        0.702131   -0.864553   -0.999429
      4          6           0        1.425795    0.249750   -0.527867
      5          6           0        0.696618    0.543110    1.468408
      6          6           0       -0.727096    0.545430    1.452632
      7          1           0       -1.066835    1.250996   -0.821037
      8          1           0       -2.496991    0.178599   -0.496861
      9          1           0       -1.206136   -1.806003   -1.161023
     10          1           0        1.225268   -1.810183   -1.134221
     11          1           0        1.089085    1.247300   -0.797206
     12          1           0        2.508026    0.169940   -0.441669
     13          1           0        1.211042    1.489069    1.623013
     14          1           0        1.206759   -0.311850    1.902189
     15          1           0       -1.241707    1.493058    1.595984
     16          1           0       -1.249463   -0.307873    1.874981
 ---------------------------------------------------------------------
                    Distance matrix (angstroms):
                    1          2          3          4          5
     1  C    0.000000
     2  C    1.409877   0.000000
     3  C    2.433025   1.385061   0.000000
     4  C    2.838817   2.433052   1.409869   0.000000
     5  C    2.940055   3.169160   2.841085   2.145430   0.000000
     6  C    2.145218   2.840960   3.169124   2.940194   1.423803
     7  H    1.086755   2.156491   2.763443   2.702156   2.975303
     8  H    1.088591   2.154647   3.402224   3.923554   3.767531
     9  H    2.156686   1.089061   2.133993   3.399127   4.006584
    10  H    3.399104   2.133985   1.089062   2.156664   3.548399
    11  H    2.702167   2.763499   2.156514   1.086749   2.404771
    12  H    3.923546   3.402246   2.154653   1.088588   2.658731
    13  H    3.629090   4.009076   3.560299   2.491649   1.087829
    14  H    3.638859   3.518765   2.996584   2.503706   1.085986
    15  H    2.491471   3.560216   4.009116   3.629342   2.162356
    16  H    2.503592   2.996427   3.518642   3.638904   2.162569
                    6          7          8          9         10
     6  C    0.000000
     7  H    2.404750   0.000000
     8  H    2.658499   1.816720   0.000000
     9  H    3.548226   3.079000   2.458874   0.000000
    10  H    4.006550   3.837009   4.268102   2.431555   0.000000
    11  H    2.975384   2.156055   3.753968   3.837065   3.079014
    12  H    3.767676   3.753963   5.005329   4.268117   2.458858
    13  H    2.162374   3.349445   4.467740   4.944806   4.299722
    14  H    2.162596   3.876555   4.440016   4.175862   3.386020
    15  H    1.087830   2.435398   2.771920   4.299553   4.944835
    16  H    1.085989   3.119606   2.723714   3.385792   4.175706
                   11         12         13         14         15
    11  H    0.000000
    12  H    1.816729   0.000000
    13  H    2.435321   2.772216   0.000000
    14  H    3.119540   2.723800   1.822434   0.000000
    15  H    3.349679   4.468017   2.452901   3.057195   0.000000
    16  H    3.876591   4.440033   3.057216   2.456375   1.822431
                   16
    16  H    0.000000
 Symmetry turned off by external request.
 Stoichiometry    C6H10
 Framework group  C1[X(C6H10)]
 Deg. of freedom    42
 Full point group                 C1      NOp   1
 Rotational constants (GHZ):           4.3999219           3.5980147           2.3215394
 Standard basis: 6-31G(d) (6D, 7F)
   110 basis functions,   208 primitive gaussians,   110 cartesian basis functions
    23 alpha electrons       23 beta electrons
       nuclear repulsion energy       225.3775904050 Hartrees.
 NAtoms=   16 NActive=   16 NUniq=   16 SFac= 1.00D+00 NAtFMM=   60 NAOKFM=F Big=F
 Integral buffers will be    131072 words long.
 Raffenetti 2 integral format.
 Two-electron integral symmetry is turned off.
 One-electron integrals computed using PRISM.
 NBasis=   110 RedAO= T EigKep=  2.26D-03  NBF=   110
 NBsUse=   110 1.00D-06 EigRej= -1.00D+00 NBFU=   110
 Initial guess from the checkpoint file:  "C:\Users\al6323\OneDrive - Imperial College London\Desktop\TSR202511112\TS_guess_opt_TS(Berny)_IRS_DFT.chk"
 B after Tr=    -0.000001    0.000303    0.000076
         Rot=    1.000000   -0.000081    0.000001   -0.000001 Ang=  -0.01 deg.
 ExpMin= 1.61D-01 ExpMax= 3.05D+03 ExpMxC= 4.57D+02 IAcc=3 IRadAn=         5 AccDes= 0.00D+00
 Harris functional with IExCor=  402 and IRadAn=       5 diagonalized for initial guess.
 HarFok:  IExCor=  402 AccDes= 0.00D+00 IRadAn=         5 IDoV= 1 UseB2=F ITyADJ=14
 ICtDFT=  3500011 ScaDFX=  1.000000  1.000000  1.000000  1.000000
 FoFCou: FMM=F IPFlag=           0 FMFlag=      100000 FMFlg1=           0
         NFxFlg=           0 DoJE=T BraDBF=F KetDBF=T FulRan=T
         wScrn=  0.000000 ICntrl=       500 IOpCl=  0 I1Cent=   200000004 NGrid=           0
         NMat0=    1 NMatS0=      1 NMatT0=    0 NMatD0=    1 NMtDS0=    0 NMtDT0=    0
 Symmetry not used in FoFCou.
 Requested convergence on RMS density matrix=1.00D-08 within  32 cycles.
 Requested convergence on MAX density matrix=1.00D-06.
 Requested convergence on             energy=1.00D-06.
 No special actions if energy rises.
 Integral accuracy reduced to 1.0D-05 until final iterations.
 Initial convergence to 1.0D-05 achieved.  Increase integral accuracy.
 SCF Done:  E(RB3LYP) =  -234.548561214     A.U. after   12 cycles
            NFock= 12  Conv=0.70D-08     -V/T= 2.0109
 QCSCF skips out because SCF is already converged.
 DoSCS=F DFT=T ScalE2(SS,OS)=  1.000000  1.000000
 Range of M.O.s used for correlation:     1   110
 NBasis=   110 NAE=    23 NBE=    23 NFC=     0 NFV=     0
 NROrb=    110 NOA=    23 NOB=    23 NVA=    87 NVB=    87
 Symmetrizing basis deriv contribution to polar:
 IMax=3 JMax=2 DiffMx= 0.00D+00
 G2DrvN: will do    17 centers at a time, making    1 passes.
 Calling FoFCou, ICntrl=  3107 FMM=F I1Cent=   0 AccDes= 0.00D+00.
 End of G2Drv F.D. properties file   721 does not exist.
 End of G2Drv F.D. properties file   722 does not exist.
 End of G2Drv F.D. properties file   788 does not exist.
          IDoAtm=1111111111111111
          Differentiating once with respect to nuclear coordinates.
 Keep R1 ints in memory in canonical form, NReq=26109314.
          There are    51 degrees of freedom in the 1st order CPHF.  IDoFFX=6 NUNeed=     0.
     45 vectors produced by pass  0 Test12= 3.92D-15 1.96D-09 XBig12= 8.95D-02 1.11D-01.
 AX will form    45 AO Fock derivatives at one time.
     45 vectors produced by pass  1 Test12= 3.92D-15 1.96D-09 XBig12= 1.63D-02 3.34D-02.
     45 vectors produced by pass  2 Test12= 3.92D-15 1.96D-09 XBig12= 1.15D-04 2.48D-03.
     45 vectors produced by pass  3 Test12= 3.92D-15 1.96D-09 XBig12= 1.88D-07 8.53D-05.
     45 vectors produced by pass  4 Test12= 3.92D-15 1.96D-09 XBig12= 1.23D-10 1.58D-06.
     20 vectors produced by pass  5 Test12= 3.92D-15 1.96D-09 XBig12= 6.23D-14 3.68D-08.
 InvSVY:  IOpt=1 It=  1 EMax= 5.55D-16
 Solved reduced A of dimension   245 with    51 vectors.
 End of Minotr F.D. properties file   721 does not exist.
 End of Minotr F.D. properties file   722 does not exist.
 End of Minotr F.D. properties file   788 does not exist.
 Calling FoFJK, ICntrl=    100127 FMM=F ISym2X=0 I1Cent= 0 IOpClX= 0 NMat=1 NMatS=1 NMatT=0.
 -------------------------------------------------------------------
 Center     Atomic                   Forces (Hartrees/Bohr)
 Number     Number              X              Y              Z
 -------------------------------------------------------------------
      1        6           0.005070736    0.004268736    0.017642398
      2        6           0.003164570   -0.001516817    0.000865808
      3        6          -0.003185401   -0.001507725    0.000797192
      4        6          -0.005437402    0.004284003    0.017515176
      5        6           0.006891393   -0.003061751   -0.018358621
      6        6          -0.006503997   -0.003036805   -0.018511823
      7        1          -0.000411191   -0.000216684   -0.000889193
      8        1           0.000363608    0.000155848    0.000787638
      9        1          -0.000055883    0.000248274   -0.000796265
     10        1           0.000074359    0.000247761   -0.000794418
     11        1           0.000430462   -0.000217856   -0.000880974
     12        1          -0.000379756    0.000156909    0.000779536
     13        1          -0.000401949   -0.000259488    0.000525414
     14        1          -0.000358159    0.000358687    0.000388277
     15        1           0.000389145   -0.000260758    0.000534608
     16        1           0.000349466    0.000357667    0.000395246
 -------------------------------------------------------------------
 Cartesian Forces:  Max     0.018511823 RMS     0.005647482
 IRC-IRC-IRC-IRC-IRC-IRC-IRC-IRC-IRC-IRC-IRC-IRC-IRC-IRC-IRC-IRC-IRC-IRC
 Pt  3 Step number   1 out of a maximum of  20
 Modified Bulirsch-Stoer Extrapolation Cycles:
    EPS =    0.000010000000000
      PEZero:  N= 2 I= 1 D=  1.49D-03 Err=  1.31D-05
      PEZero:  N= 3 I= 2 D=  1.49D-03 Err=  8.70D-06
      PEZero:  N= 3 I= 1 D=  2.98D-03 Err=  4.50D-08
 Maximum DWI energy   std dev =  0.000001793 at pt    70
 Maximum DWI gradient std dev =  0.012866353 at pt    23
 CORRECTOR INTEGRATION CONVERGENCE:
   Recorrection delta-x convergence threshold:    0.010000
   Delta-x Convergence Met
 Point Number:   3          Path Number:   1
   CHANGE IN THE REACTION COORDINATE =    0.28646
   NET REACTION COORDINATE UP TO THIS POINT =    0.85939
  # OF POINTS ALONG THE PATH =   3
  # OF STEPS =   1

 Calculating another point on the path.
 IRC-IRC-IRC-IRC-IRC-IRC-IRC-IRC-IRC-IRC-IRC-IRC-IRC-IRC-IRC-IRC-IRC-IRC
                          Input orientation:                          
 ---------------------------------------------------------------------
 Center     Atomic      Atomic             Coordinates (Angstroms)
 Number     Number       Type             X           Y           Z
 ---------------------------------------------------------------------
      1          6           0       -1.407441    0.259062   -0.539749
      2          6           0       -0.679352   -0.863819   -1.013717
      3          6           0        0.698615   -0.866186   -0.998521
      4          6           0        1.419984    0.254182   -0.508630
      5          6           0        0.703934    0.539772    1.448222
      6          6           0       -0.733983    0.542117    1.432286
      7          1           0       -1.071237    1.251064   -0.833215
      8          1           0       -2.492449    0.180551   -0.486685
      9          1           0       -1.207241   -1.803122   -1.171870
     10          1           0        1.226622   -1.807309   -1.145037
     11          1           0        1.093762    1.247354   -0.809301
     12          1           0        2.503272    0.171905   -0.431595
     13          1           0        1.207034    1.487704    1.630210
     14          1           0        1.203253   -0.308954    1.907942
     15          1           0       -1.237867    1.491682    1.603275
     16          1           0       -1.246087   -0.304988    1.880800
 ---------------------------------------------------------------------
                    Distance matrix (angstroms):
                    1          2          3          4          5
     1  C    0.000000
     2  C    1.419726   0.000000
     3  C    2.431487   1.378053   0.000000
     4  C    2.827600   2.431511   1.419714   0.000000
     5  C    2.913543   3.153521   2.821931   2.103226   0.000000
     6  C    2.102996   2.821803   3.153487   2.913698   1.438007
     7  H    1.087761   2.158445   2.764498   2.702834   2.976932
     8  H    1.089139   2.157729   3.397135   3.913187   3.753634
     9  H    2.166162   1.089022   2.130771   3.402160   4.000827
    10  H    3.402139   2.130764   1.089023   2.166137   3.536521
    11  H    2.702849   2.764556   2.158470   1.087756   2.397717
    12  H    3.913179   3.397158   2.157735   1.089136   2.628051
    13  H    3.612999   4.009796   3.565040   2.478217   1.088487
    14  H    3.623473   3.519683   3.002115   2.490767   1.086737
    15  H    2.478035   3.564964   4.009843   3.613270   2.168125
    16  H    2.490632   3.001951   3.519559   3.623532   2.168715
                    6          7          8          9         10
     6  C    0.000000
     7  H    2.397675   0.000000
     8  H    2.627810   1.812712   0.000000
     9  H    3.536347   3.075912   2.460934   0.000000
    10  H    4.000796   3.838103   4.268079   2.434014   0.000000
    11  H    2.977033   2.165134   3.755404   3.838159   3.075928
    12  H    3.753789   3.755396   4.996032   4.268096   2.460920
    13  H    2.168146   3.363775   4.458259   4.950748   4.308073
    14  H    2.168745   3.888561   4.430809   4.186676   3.400926
    15  H    1.088489   2.454006   2.767846   4.307911   4.950784
    16  H    1.086740   3.133329   2.719219   3.400692   4.186519
                   11         12         13         14         15
    11  H    0.000000
    12  H    1.812724   0.000000
    13  H    2.453938   2.768140   0.000000
    14  H    3.133288   2.719322   1.818002   0.000000
    15  H    3.364032   4.458545   2.445053   3.048635   0.000000
    16  H    3.888612   4.430834   3.048663   2.449493   1.817996
                   16
    16  H    0.000000
 Symmetry turned off by external request.
 Stoichiometry    C6H10
 Framework group  C1[X(C6H10)]
 Deg. of freedom    42
 Full point group                 C1      NOp   1
 Rotational constants (GHZ):           4.4181897           3.6443198           2.3423271
 Standard basis: 6-31G(d) (6D, 7F)
   110 basis functions,   208 primitive gaussians,   110 cartesian basis functions
    23 alpha electrons       23 beta electrons
       nuclear repulsion energy       225.8267038433 Hartrees.
 NAtoms=   16 NActive=   16 NUniq=   16 SFac= 1.00D+00 NAtFMM=   60 NAOKFM=F Big=F
 Integral buffers will be    131072 words long.
 Raffenetti 2 integral format.
 Two-electron integral symmetry is turned off.
 One-electron integrals computed using PRISM.
 NBasis=   110 RedAO= T EigKep=  2.26D-03  NBF=   110
 NBsUse=   110 1.00D-06 EigRej= -1.00D+00 NBFU=   110
 Initial guess from the checkpoint file:  "C:\Users\al6323\OneDrive - Imperial College London\Desktop\TSR202511112\TS_guess_opt_TS(Berny)_IRS_DFT.chk"
 B after Tr=     0.000000    0.000270    0.000001
         Rot=    1.000000   -0.000095    0.000000   -0.000001 Ang=  -0.01 deg.
 ExpMin= 1.61D-01 ExpMax= 3.05D+03 ExpMxC= 4.57D+02 IAcc=3 IRadAn=         5 AccDes= 0.00D+00
 Harris functional with IExCor=  402 and IRadAn=       5 diagonalized for initial guess.
 HarFok:  IExCor=  402 AccDes= 0.00D+00 IRadAn=         5 IDoV= 1 UseB2=F ITyADJ=14
 ICtDFT=  3500011 ScaDFX=  1.000000  1.000000  1.000000  1.000000
 FoFCou: FMM=F IPFlag=           0 FMFlag=      100000 FMFlg1=           0
         NFxFlg=           0 DoJE=T BraDBF=F KetDBF=T FulRan=T
         wScrn=  0.000000 ICntrl=       500 IOpCl=  0 I1Cent=   200000004 NGrid=           0
         NMat0=    1 NMatS0=      1 NMatT0=    0 NMatD0=    1 NMtDS0=    0 NMtDT0=    0
 Symmetry not used in FoFCou.
 Requested convergence on RMS density matrix=1.00D-08 within  32 cycles.
 Requested convergence on MAX density matrix=1.00D-06.
 Requested convergence on             energy=1.00D-06.
 No special actions if energy rises.
 Integral accuracy reduced to 1.0D-05 until final iterations.
 Initial convergence to 1.0D-05 achieved.  Increase integral accuracy.
 SCF Done:  E(RB3LYP) =  -234.552481659     A.U. after   12 cycles
            NFock= 12  Conv=0.74D-08     -V/T= 2.0111
 QCSCF skips out because SCF is already converged.
 DoSCS=F DFT=T ScalE2(SS,OS)=  1.000000  1.000000
 Range of M.O.s used for correlation:     1   110
 NBasis=   110 NAE=    23 NBE=    23 NFC=     0 NFV=     0
 NROrb=    110 NOA=    23 NOB=    23 NVA=    87 NVB=    87
 Symmetrizing basis deriv contribution to polar:
 IMax=3 JMax=2 DiffMx= 0.00D+00
 G2DrvN: will do    17 centers at a time, making    1 passes.
 Calling FoFCou, ICntrl=  3107 FMM=F I1Cent=   0 AccDes= 0.00D+00.
 End of G2Drv F.D. properties file   721 does not exist.
 End of G2Drv F.D. properties file   722 does not exist.
 End of G2Drv F.D. properties file   788 does not exist.
          IDoAtm=1111111111111111
          Differentiating once with respect to nuclear coordinates.
 Keep R1 ints in memory in canonical form, NReq=26109314.
          There are    51 degrees of freedom in the 1st order CPHF.  IDoFFX=6 NUNeed=     0.
     45 vectors produced by pass  0 Test12= 3.92D-15 1.96D-09 XBig12= 8.73D-02 1.07D-01.
 AX will form    45 AO Fock derivatives at one time.
     45 vectors produced by pass  1 Test12= 3.92D-15 1.96D-09 XBig12= 1.60D-02 3.46D-02.
     45 vectors produced by pass  2 Test12= 3.92D-15 1.96D-09 XBig12= 1.13D-04 2.28D-03.
     45 vectors produced by pass  3 Test12= 3.92D-15 1.96D-09 XBig12= 1.71D-07 8.57D-05.
     45 vectors produced by pass  4 Test12= 3.92D-15 1.96D-09 XBig12= 1.16D-10 1.63D-06.
     21 vectors produced by pass  5 Test12= 3.92D-15 1.96D-09 XBig12= 6.29D-14 3.93D-08.
 InvSVY:  IOpt=1 It=  1 EMax= 7.77D-16
 Solved reduced A of dimension   246 with    51 vectors.
 End of Minotr F.D. properties file   721 does not exist.
 End of Minotr F.D. properties file   722 does not exist.
 End of Minotr F.D. properties file   788 does not exist.
 Calling FoFJK, ICntrl=    100127 FMM=F ISym2X=0 I1Cent= 0 IOpClX= 0 NMat=1 NMatS=1 NMatT=0.
 -------------------------------------------------------------------
 Center     Atomic                   Forces (Hartrees/Bohr)
 Number     Number              X              Y              Z
 -------------------------------------------------------------------
      1        6           0.006802278    0.005732266    0.024182749
      2        6           0.004064835   -0.002082698    0.001324212
      3        6          -0.004097787   -0.002071491    0.001233546
      4        6          -0.007310874    0.005754260    0.024017936
      5        6           0.009415504   -0.004098307   -0.025142407
      6        6          -0.008878334   -0.004064522   -0.025346848
      7        1          -0.000560776   -0.000247257   -0.001162877
      8        1           0.000488935    0.000191314    0.001074493
      9        1          -0.000107541    0.000365526   -0.001188345
     10        1           0.000134971    0.000364735   -0.001185371
     11        1           0.000586598   -0.000249201   -0.001152461
     12        1          -0.000511494    0.000192722    0.001063589
     13        1          -0.000524778   -0.000317202    0.000673842
     14        1          -0.000465938    0.000425241    0.000456548
     15        1           0.000508483   -0.000319052    0.000685723
     16        1           0.000455919    0.000423666    0.000465671
 -------------------------------------------------------------------
 Cartesian Forces:  Max     0.025346848 RMS     0.007719401
 IRC-IRC-IRC-IRC-IRC-IRC-IRC-IRC-IRC-IRC-IRC-IRC-IRC-IRC-IRC-IRC-IRC-IRC
 Pt  4 Step number   1 out of a maximum of  20
 Modified Bulirsch-Stoer Extrapolation Cycles:
    EPS =    0.000010000000000
      PEZero:  N= 2 I= 1 D=  1.49D-03 Err=  1.23D-05
      PEZero:  N= 3 I= 2 D=  1.49D-03 Err=  8.20D-06
      PEZero:  N= 3 I= 1 D=  2.98D-03 Err=  3.61D-08
 Maximum DWI energy   std dev =  0.000001966 at pt    17
 Maximum DWI gradient std dev =  0.008457042 at pt    24
 CORRECTOR INTEGRATION CONVERGENCE:
   Recorrection delta-x convergence threshold:    0.010000
   Delta-x Convergence Met
 Point Number:   4          Path Number:   1
   CHANGE IN THE REACTION COORDINATE =    0.28646
   NET REACTION COORDINATE UP TO THIS POINT =    1.14586
  # OF POINTS ALONG THE PATH =   4
  # OF STEPS =   1

 Calculating another point on the path.
 IRC-IRC-IRC-IRC-IRC-IRC-IRC-IRC-IRC-IRC-IRC-IRC-IRC-IRC-IRC-IRC-IRC-IRC
                          Input orientation:                          
 ---------------------------------------------------------------------
 Center     Atomic      Atomic             Coordinates (Angstroms)
 Number     Number       Type             X           Y           Z
 ---------------------------------------------------------------------
      1          6           0       -1.402096    0.263473   -0.520339
      2          6           0       -0.676118   -0.865455   -1.012599
      3          6           0        0.695354   -0.867812   -0.997476
      4          6           0        1.414228    0.258611   -0.489347
      5          6           0        0.711329    0.536504    1.428019
      6          6           0       -0.740943    0.538876    1.411924
      7          1           0       -1.075994    1.250494   -0.844507
      8          1           0       -2.487911    0.182280   -0.476387
      9          1           0       -1.208607   -1.799838   -1.183636
     10          1           0        1.228258   -1.804034   -1.156768
     11          1           0        1.098776    1.246766   -0.820509
     12          1           0        2.498515    0.173647   -0.421398
     13          1           0        1.202784    1.485946    1.636638
     14          1           0        1.199480   -0.306067    1.912444
     15          1           0       -1.233768    1.489909    1.609799
     16          1           0       -1.242413   -0.302113    1.885374
 ---------------------------------------------------------------------
                    Distance matrix (angstroms):
                    1          2          3          4          5
     1  C    0.000000
     2  C    1.429630   0.000000
     3  C    2.430383   1.371558   0.000000
     4  C    2.816498   2.430404   1.429617   0.000000
     5  C    2.887422   3.138011   2.802746   2.060966   0.000000
     6  C    2.060730   2.802617   3.137982   2.887584   1.452363
     7  H    1.088869   2.159952   2.765555   2.703918   2.978032
     8  H    1.089734   2.160524   3.392257   3.902907   3.739970
     9  H    2.175926   1.088976   2.128002   3.405658   3.995671
    10  H    3.405641   2.127995   1.088977   2.175900   3.525118
    11  H    2.703946   2.765615   2.159979   1.088866   2.389658
    12  H    3.902899   3.392278   2.160531   1.089731   2.597314
    13  H    3.596163   4.009715   3.568784   2.463914   1.089262
    14  H    3.607077   3.519469   3.006216   2.476606   1.087605
    15  H    2.463730   3.568709   4.009769   3.596441   2.173805
    16  H    2.476457   3.006043   3.519344   3.607139   2.174756
                    6          7          8          9         10
     6  C    0.000000
     7  H    2.389590   0.000000
     8  H    2.597071   1.808343   0.000000
     9  H    3.524943   3.071989   2.462846   0.000000
    10  H    3.995643   3.838909   4.268287   2.437016   0.000000
    11  H    2.978159   2.174905   3.757110   3.838968   3.072006
    12  H    3.740127   3.757091   4.986737   4.268302   2.462833
    13  H    2.173825   3.377032   4.448107   4.956322   4.315986
    14  H    2.174785   3.898902   4.420616   4.197135   3.415377
    15  H    1.089263   2.470998   2.763140   4.315825   4.956362
    16  H    1.087607   3.144922   2.713636   3.415135   4.196976
                   11         12         13         14         15
    11  H    0.000000
    12  H    1.808354   0.000000
    13  H    2.470950   2.763432   0.000000
    14  H    3.144911   2.713749   1.813116   0.000000
    15  H    3.377318   4.448397   2.436703   3.039377   0.000000
    16  H    3.898974   4.420643   3.039411   2.442046   1.813108
                   16
    16  H    0.000000
 Symmetry turned off by external request.
 Stoichiometry    C6H10
 Framework group  C1[X(C6H10)]
 Deg. of freedom    42
 Full point group                 C1      NOp   1
 Rotational constants (GHZ):           4.4364334           3.6915130           2.3629672
 Standard basis: 6-31G(d) (6D, 7F)
   110 basis functions,   208 primitive gaussians,   110 cartesian basis functions
    23 alpha electrons       23 beta electrons
       nuclear repulsion energy       226.2952735066 Hartrees.
 NAtoms=   16 NActive=   16 NUniq=   16 SFac= 1.00D+00 NAtFMM=   60 NAOKFM=F Big=F
 Integral buffers will be    131072 words long.
 Raffenetti 2 integral format.
 Two-electron integral symmetry is turned off.
 One-electron integrals computed using PRISM.
 NBasis=   110 RedAO= T EigKep=  2.25D-03  NBF=   110
 NBsUse=   110 1.00D-06 EigRej= -1.00D+00 NBFU=   110
 Initial guess from the checkpoint file:  "C:\Users\al6323\OneDrive - Imperial College London\Desktop\TSR202511112\TS_guess_opt_TS(Berny)_IRS_DFT.chk"
 B after Tr=     0.000001    0.000236   -0.000078
         Rot=    1.000000   -0.000111    0.000000   -0.000001 Ang=  -0.01 deg.
 ExpMin= 1.61D-01 ExpMax= 3.05D+03 ExpMxC= 4.57D+02 IAcc=3 IRadAn=         5 AccDes= 0.00D+00
 Harris functional with IExCor=  402 and IRadAn=       5 diagonalized for initial guess.
 HarFok:  IExCor=  402 AccDes= 0.00D+00 IRadAn=         5 IDoV= 1 UseB2=F ITyADJ=14
 ICtDFT=  3500011 ScaDFX=  1.000000  1.000000  1.000000  1.000000
 FoFCou: FMM=F IPFlag=           0 FMFlag=      100000 FMFlg1=           0
         NFxFlg=           0 DoJE=T BraDBF=F KetDBF=T FulRan=T
         wScrn=  0.000000 ICntrl=       500 IOpCl=  0 I1Cent=   200000004 NGrid=           0
         NMat0=    1 NMatS0=      1 NMatT0=    0 NMatD0=    1 NMtDS0=    0 NMtDT0=    0
 Symmetry not used in FoFCou.
 Requested convergence on RMS density matrix=1.00D-08 within  32 cycles.
 Requested convergence on MAX density matrix=1.00D-06.
 Requested convergence on             energy=1.00D-06.
 No special actions if energy rises.
 Integral accuracy reduced to 1.0D-05 until final iterations.
 Initial convergence to 1.0D-05 achieved.  Increase integral accuracy.
 SCF Done:  E(RB3LYP) =  -234.557577529     A.U. after   12 cycles
            NFock= 12  Conv=0.65D-08     -V/T= 2.0113
 QCSCF skips out because SCF is already converged.
 DoSCS=F DFT=T ScalE2(SS,OS)=  1.000000  1.000000
 Range of M.O.s used for correlation:     1   110
 NBasis=   110 NAE=    23 NBE=    23 NFC=     0 NFV=     0
 NROrb=    110 NOA=    23 NOB=    23 NVA=    87 NVB=    87
 Symmetrizing basis deriv contribution to polar:
 IMax=3 JMax=2 DiffMx= 0.00D+00
 G2DrvN: will do    17 centers at a time, making    1 passes.
 Calling FoFCou, ICntrl=  3107 FMM=F I1Cent=   0 AccDes= 0.00D+00.
 End of G2Drv F.D. properties file   721 does not exist.
 End of G2Drv F.D. properties file   722 does not exist.
 End of G2Drv F.D. properties file   788 does not exist.
          IDoAtm=1111111111111111
          Differentiating once with respect to nuclear coordinates.
 Keep R1 ints in memory in canonical form, NReq=26109314.
          There are    51 degrees of freedom in the 1st order CPHF.  IDoFFX=6 NUNeed=     0.
     45 vectors produced by pass  0 Test12= 3.92D-15 1.96D-09 XBig12= 8.51D-02 1.04D-01.
 AX will form    45 AO Fock derivatives at one time.
     45 vectors produced by pass  1 Test12= 3.92D-15 1.96D-09 XBig12= 1.54D-02 3.43D-02.
     45 vectors produced by pass  2 Test12= 3.92D-15 1.96D-09 XBig12= 1.09D-04 2.06D-03.
     45 vectors produced by pass  3 Test12= 3.92D-15 1.96D-09 XBig12= 1.61D-07 8.51D-05.
     45 vectors produced by pass  4 Test12= 3.92D-15 1.96D-09 XBig12= 1.13D-10 1.70D-06.
     21 vectors produced by pass  5 Test12= 3.92D-15 1.96D-09 XBig12= 6.37D-14 4.19D-08.
 InvSVY:  IOpt=1 It=  1 EMax= 6.38D-16
 Solved reduced A of dimension   246 with    51 vectors.
 End of Minotr F.D. properties file   721 does not exist.
 End of Minotr F.D. properties file   722 does not exist.
 End of Minotr F.D. properties file   788 does not exist.
 Calling FoFJK, ICntrl=    100127 FMM=F ISym2X=0 I1Cent= 0 IOpClX= 0 NMat=1 NMatS=1 NMatT=0.
 -------------------------------------------------------------------
 Center     Atomic                   Forces (Hartrees/Bohr)
 Number     Number              X              Y              Z
 -------------------------------------------------------------------
      1        6           0.008397111    0.007013447    0.030277107
      2        6           0.004652365   -0.002524446    0.001891432
      3        6          -0.004699344   -0.002511909    0.001785787
      4        6          -0.009039968    0.007043109    0.030081423
      5        6           0.011663415   -0.005016111   -0.031491828
      6        6          -0.010983945   -0.004974843   -0.031740266
      7        1          -0.000707643   -0.000308210   -0.001332171
      8        1           0.000609571    0.000210791    0.001374399
      9        1          -0.000173638    0.000506411   -0.001596091
     10        1           0.000210501    0.000505296   -0.001591644
     11        1           0.000737086   -0.000311258   -0.001318821
     12        1          -0.000639046    0.000212498    0.001361177
     13        1          -0.000644550   -0.000393649    0.000726094
     14        1          -0.000575504    0.000473500    0.000410738
     15        1           0.000626798   -0.000395961    0.000740404
     16        1           0.000566792    0.000471337    0.000422260
 -------------------------------------------------------------------
 Cartesian Forces:  Max     0.031740266 RMS     0.009639590
 IRC-IRC-IRC-IRC-IRC-IRC-IRC-IRC-IRC-IRC-IRC-IRC-IRC-IRC-IRC-IRC-IRC-IRC
 Pt  5 Step number   1 out of a maximum of  20
 Modified Bulirsch-Stoer Extrapolation Cycles:
    EPS =    0.000010000000000
      PEZero:  N= 2 I= 1 D=  1.49D-03 Err=  1.48D-05
      PEZero:  N= 3 I= 2 D=  1.49D-03 Err=  9.82D-06
      PEZero:  N= 3 I= 1 D=  2.98D-03 Err=  3.41D-08
 Maximum DWI energy   std dev =  0.000003680 at pt    27
 Maximum DWI gradient std dev =  0.006283567 at pt    24
 CORRECTOR INTEGRATION CONVERGENCE:
   Recorrection delta-x convergence threshold:    0.010000
   Delta-x Convergence Met
 Point Number:   5          Path Number:   1
   CHANGE IN THE REACTION COORDINATE =    0.28647
   NET REACTION COORDINATE UP TO THIS POINT =    1.43233
  # OF POINTS ALONG THE PATH =   5
  # OF STEPS =   1

 Calculating another point on the path.
 IRC-IRC-IRC-IRC-IRC-IRC-IRC-IRC-IRC-IRC-IRC-IRC-IRC-IRC-IRC-IRC-IRC-IRC
                          Input orientation:                          
 ---------------------------------------------------------------------
 Center     Atomic      Atomic             Coordinates (Angstroms)
 Number     Number       Type             X           Y           Z
 ---------------------------------------------------------------------
      1          6           0       -1.396777    0.267817   -0.500877
      2          6           0       -0.673196   -0.867016   -1.011307
      3          6           0        0.692400   -0.869366   -0.996250
      4          6           0        1.408494    0.262973   -0.470007
      5          6           0        0.718669    0.533300    1.407746
      6          6           0       -0.747844    0.535698    1.391497
      7          1           0       -1.080985    1.249335   -0.854605
      8          1           0       -2.483329    0.183792   -0.465712
      9          1           0       -1.210253   -1.796069   -1.196224
     10          1           0        1.230194   -1.800275   -1.169315
     11          1           0        1.103992    1.245588   -0.830514
     12          1           0        2.493702    0.175172   -0.410821
     13          1           0        1.198381    1.483780    1.641925
     14          1           0        1.195512   -0.303299    1.915371
     15          1           0       -1.229490    1.487728    1.615184
     16          1           0       -1.238508   -0.299360    1.888380
 ---------------------------------------------------------------------
                    Distance matrix (angstroms):
                    1          2          3          4          5
     1  C    0.000000
     2  C    1.439428   0.000000
     3  C    2.429658   1.365682   0.000000
     4  C    2.805444   2.429674   1.439414   0.000000
     5  C    2.861544   3.122497   2.783408   2.018636   0.000000
     6  C    2.018404   2.783279   3.122474   2.861707   1.466604
     7  H    1.090058   2.160969   2.766560   2.705242   2.978204
     8  H    1.090364   2.162972   3.387605   3.892630   3.726230
     9  H    2.185846   1.088928   2.125760   3.409528   3.990909
    10  H    3.409514   2.125755   1.088929   2.185822   3.514040
    11  H    2.705280   2.766619   2.160997   1.090054   2.380260
    12  H    3.892623   3.387622   2.162978   1.090361   2.566356
    13  H    3.578409   4.008576   3.571173   2.448422   1.090127
    14  H    3.589483   3.517853   3.008503   2.460905   1.088559
    15  H    2.448240   3.571097   4.008633   3.578687   2.179286
    16  H    2.460749   3.008321   3.517727   3.589544   2.180567
                    6          7          8          9         10
     6  C    0.000000
     7  H    2.380176   0.000000
[...]
      3        6          -0.000004381    0.000003442   -0.000028769
      4        6          -0.000049716    0.000041303   -0.000058118
      5        6          -0.000150496    0.000050970    0.000342437
      6        6           0.000254238    0.000027246   -0.000072634
      7        1          -0.000033915   -0.000110768   -0.000012641
      8        1           0.000001056   -0.000002445   -0.000014058
      9        1           0.000027807    0.000080510    0.000003618
     10        1           0.000002863    0.000002356    0.000000102
     11        1          -0.000005654   -0.000000385   -0.000011361
     12        1          -0.000012091    0.000007172   -0.000003323
     13        1          -0.000213206   -0.000210099   -0.000195891
     14        1           0.000013721    0.000027210    0.000050364
     15        1          -0.000006177   -0.000019249   -0.000024205
     16        1           0.000217495    0.000211704    0.000217066
 -------------------------------------------------------------------
 Cartesian Forces:  Max     0.000342437 RMS     0.000107930
 IRC-IRC-IRC-IRC-IRC-IRC-IRC-IRC-IRC-IRC-IRC-IRC-IRC-IRC-IRC-IRC-IRC-IRC
 Pt 75 Step number   1 out of a maximum of  20
 Modified Bulirsch-Stoer Extrapolation Cycles:
    EPS =    0.000010000000000
      PEZero:  N= 2 I= 1 D=  1.49D-03 Err=  1.27D-02
      PEZero:  N= 3 I= 2 D=  1.49D-03 Err=  2.26D-02
      PEZero:  N= 3 I= 1 D=  2.98D-03 Err=  2.13D-02
      PEZero:  N= 4 I= 3 D=  7.45D-04 Err=  3.68D-02
      PEZero:  N= 4 I= 2 D=  2.24D-03 Err=  2.64D-02
      PEZero:  N= 4 I= 1 D=  3.73D-03 Err=  1.89D-02
      PEZero:  N= 5 I= 4 D=  7.45D-04 Err=  5.03D-02
      PEZero:  N= 5 I= 3 D=  1.49D-03 Err=  3.87D-02
      PEZero:  N= 5 I= 2 D=  2.98D-03 Err=  2.55D-02
      PEZero:  N= 5 I= 1 D=  4.47D-03 Err=  1.92D-02
      PEZero:  N= 6 I= 5 D=  3.73D-04 Err=  7.56D-02
      PEZero:  N= 6 I= 4 D=  1.12D-03 Err=  5.05D-02
      PEZero:  N= 6 I= 3 D=  1.86D-03 Err=  3.74D-02
      PEZero:  N= 6 I= 2 D=  3.35D-03 Err=  2.47D-02
      PEZero:  N= 6 I= 1 D=  4.84D-03 Err=  1.84D-02
      PEZero:  N= 7 I= 6 D=  3.73D-04 Err=  9.37D-02
      PEZero:  N= 7 I= 5 D=  7.45D-04 Err=  6.49D-02
      PEZero:  N= 7 I= 4 D=  1.49D-03 Err=  3.97D-02
      PEZero:  N= 7 I= 3 D=  2.24D-03 Err=  2.72D-02
      PEZero:  N= 7 I= 2 D=  3.73D-03 Err=  1.68D-02
      PEZero:  N= 7 I= 1 D=  5.22D-03 Err=  1.18D-02
      PEZero:  N= 8 I= 7 D=  1.86D-04 Err=  1.26D-05
      PEZero:  N= 8 I= 6 D=  5.59D-04 Err=  9.37D-02
      PEZero:  N= 9 I= 8 D=  1.86D-04 Err=  8.41D-06
      PEZero:  N= 9 I= 7 D=  3.73D-04 Err=  1.91D-06
      PEZero:  N= 9 I= 6 D=  7.45D-04 Err=  3.25D-02
 Maximum DWI energy   std dev =  0.000000316 at pt    31
 Maximum DWI gradient std dev =  0.486358421 at pt   513
 CORRECTOR INTEGRATION CONVERGENCE:
   Recorrection delta-x convergence threshold:    0.010000
   Delta-x Convergence Met
 Point Number:  54          Path Number:   2
   CHANGE IN THE REACTION COORDINATE =    0.28581
   NET REACTION COORDINATE UP TO THIS POINT =   15.45287
  # OF POINTS ALONG THE PATH =  75
  # OF STEPS =   1

 PES minimum detected on this side of the pathway.
    Magnitude of the gradient =      0.0001341
 Calculation of REVERSE path complete.
 Reaction path calculation complete.
 
 Energies reported relative to the TS energy of        -234.543883
 --------------------------------------------------------------------------
    Summary of reaction path following
 --------------------------------------------------------------------------
                        Energy    RxCoord
   1                   -0.03138 -15.45287
   2                   -0.03134 -15.16706
   3                   -0.03129 -14.88268
   4                   -0.03122 -14.59852
   5                   -0.03112 -14.31280
   6                   -0.03101 -14.02650
   7                   -0.03090 -13.74014
   8                   -0.03080 -13.45411
   9                   -0.03072 -13.16961
  10                   -0.03066 -12.88683
  11                   -0.03060 -12.60214
  12                   -0.03053 -12.31636
  13                   -0.03045 -12.03034
  14                   -0.03036 -11.74421
  15                   -0.03027 -11.45799
  16                   -0.03017 -11.17169
  17                   -0.03007 -10.88534
  18                   -0.02995 -10.59894
  19                   -0.02984 -10.31251
  20                   -0.02971 -10.02607
  21                   -0.02958  -9.73963
  22                   -0.02944  -9.45319
  23                   -0.02929  -9.16676
  24                   -0.02913  -8.88033
  25                   -0.02896  -8.59388
  26                   -0.02877  -8.30744
  27                   -0.02856  -8.02099
  28                   -0.02833  -7.73453
  29                   -0.02806  -7.44807
  30                   -0.02777  -7.16160
  31                   -0.02745  -6.87513
  32                   -0.02708  -6.58866
  33                   -0.02667  -6.30219
  34                   -0.02621  -6.01571
  35                   -0.02569  -5.72924
  36                   -0.02510  -5.44277
  37                   -0.02445  -5.15629
  38                   -0.02371  -4.86983
  39                   -0.02289  -4.58336
  40                   -0.02197  -4.29689
  41                   -0.02094  -4.01041
  42                   -0.01980  -3.72394
  43                   -0.01854  -3.43746
  44                   -0.01715  -3.15099
  45                   -0.01564  -2.86451
  46                   -0.01401  -2.57804
  47                   -0.01226  -2.29156
  48                   -0.01042  -2.00510
  49                   -0.00851  -1.71864
  50                   -0.00657  -1.43219
  51                   -0.00468  -1.14575
  52                   -0.00292  -0.85931
  53                   -0.00144  -0.57289
  54                   -0.00040  -0.28648
  55                    0.00000   0.00000
  56                   -0.00047   0.28651
  57                   -0.00198   0.57294
  58                   -0.00468   0.85939
  59                   -0.00860   1.14586
  60                   -0.01370   1.43233
  61                   -0.01984   1.71879
  62                   -0.02685   2.00526
  63                   -0.03452   2.29172
  64                   -0.04262   2.57818
  65                   -0.05091   2.86464
  66                   -0.05918   3.15110
  67                   -0.06716   3.43755
  68                   -0.07460   3.72401
  69                   -0.08123   4.01044
  70                   -0.08675   4.29683
  71                   -0.09087   4.58303
  72                   -0.09339   4.86808
  73                   -0.09445   5.14273
  74                   -0.09490   5.42293
  75                   -0.09515   5.70868
  76                   -0.09526   5.99524
 --------------------------------------------------------------------------
 
 Total number of points:                   75
 Total number of gradient calculations:    87
 Total number of Hessian calculations:     76
 IRC-IRC-IRC-IRC-IRC-IRC-IRC-IRC-IRC-IRC-IRC-IRC-IRC-IRC-IRC-IRC-IRC-IRC
                          Input orientation:                          
 ---------------------------------------------------------------------
 Center     Atomic      Atomic             Coordinates (Angstroms)
 Number     Number       Type             X           Y           Z
 ---------------------------------------------------------------------
      1          6           0       -1.544321    0.030924   -1.306981
      2          6           0       -0.716266   -1.022750   -1.307585
      3          6           0        0.742494   -0.972828   -1.485279
      4          6           0        1.542020    0.045464   -1.140423
      5          6           0        0.650827    0.852517    2.582501
      6          6           0       -0.673034    0.933139    2.459696
      7          1           0       -1.184640    1.043574   -1.471739
      8          1           0       -2.613408   -0.089293   -1.156629
      9          1           0       -1.142817   -2.019798   -1.191873
     10          1           0        1.193067   -1.863594   -1.924240
     11          1           0        1.158121    0.935819   -0.649055
     12          1           0        2.611555    0.012359   -1.327660
     13          1           0        1.195184    1.422891    3.332684
     14          1           0        1.243981    0.210124    1.936342
     15          1           0       -1.270639    1.574324    3.104086
     16          1           0       -1.210873    0.363212    1.705575
 ---------------------------------------------------------------------
                    Distance matrix (angstroms):
                    1          2          3          4          5
     1  C    0.000000
     2  C    1.340114   0.000000
     3  C    2.503763   1.470391   0.000000
     4  C    3.090867   2.503774   1.339808   0.000000
     5  C    4.541119   4.529717   4.459498   3.912253   0.000000
     6  C    3.970011   4.244970   4.604265   4.319177   1.331987
     7  H    1.087187   2.125092   2.789248   2.922443   4.454471
     8  H    1.086279   2.119735   3.485788   4.157644   5.052062
     9  H    2.092825   1.090614   2.176380   3.387669   5.070824
    10  H    3.385779   2.175508   1.090489   2.092997   5.289801
    11  H    2.924876   2.789800   2.124841   1.086993   3.272193
    12  H    4.155969   3.485147   2.118685   1.086304   4.454175
    13  H    5.564975   5.582732   5.399737   4.693216   1.088313
    14  H    4.280875   3.985676   3.654908   3.095549   1.087208
    15  H    4.681292   5.149268   5.621650   5.316420   2.117803
    16  H    3.049114   3.353305   3.972681   3.972290   2.115266
                    6          7          8          9         10
     6  C    0.000000
     7  H    3.966121   0.000000
     8  H    4.229447   1.850421   0.000000
     9  H    4.719586   3.076414   2.427083   0.000000
    10  H    5.524757   3.782839   4.269265   2.452981   0.000000
    11  H    3.607973   2.485347   3.941182   3.784791   3.076366
    12  H    5.097099   3.936401   5.228749   4.271230   2.426358
    13  H    2.119482   5.374935   6.078322   6.147355   6.199696
    14  H    2.114615   4.267067   4.953339   4.522730   4.382578
    15  H    1.087882   4.607306   4.767006   5.602617   6.570631
    16  H    1.087560   3.249447   3.219328   3.752143   4.890107
                   11         12         13         14         15
    11  H    0.000000
    12  H    1.850878   0.000000
    13  H    4.011590   5.070947   0.000000
    14  H    2.686687   3.544442   1.850122   0.000000
    15  H    4.515820   6.095205   2.481023   3.089981   0.000000
    16  H    3.388849   4.892296   3.091847   2.470425   1.850999
                   16
    16  H    0.000000
 Symmetry turned off by external request.
 Stoichiometry    C6H10
 Framework group  C1[X(C6H10)]
 Deg. of freedom    42
 Full point group                 C1      NOp   1
 Rotational constants (GHZ):           4.0913674           1.5237957           1.2038503

 **********************************************************************

            Population analysis using the SCF Density.

 **********************************************************************

 Alpha  occ. eigenvalues --  -10.19482 -10.19405 -10.18484 -10.18367 -10.17871
 Alpha  occ. eigenvalues --  -10.17780  -0.80126  -0.74919  -0.72613  -0.61802
 Alpha  occ. eigenvalues --   -0.57161  -0.52929  -0.48836  -0.45945  -0.43503
 Alpha  occ. eigenvalues --   -0.42254  -0.41021  -0.36797  -0.34907  -0.34697
 Alpha  occ. eigenvalues --   -0.30937  -0.26153  -0.23293
 Alpha virt. eigenvalues --   -0.02663   0.02278   0.07524   0.10666   0.12045
 Alpha virt. eigenvalues --    0.13414   0.14761   0.15151   0.16568   0.18125
 Alpha virt. eigenvalues --    0.19112   0.21092   0.25102   0.31218   0.33512
 Alpha virt. eigenvalues --    0.33895   0.40445   0.47089   0.49034   0.52235
 Alpha virt. eigenvalues --    0.53602   0.55744   0.57326   0.59388   0.60844
 Alpha virt. eigenvalues --    0.63551   0.64329   0.65522   0.66518   0.68441
 Alpha virt. eigenvalues --    0.69140   0.69711   0.71692   0.84239   0.85336
 Alpha virt. eigenvalues --    0.87144   0.87607   0.88707   0.89399   0.92453
 Alpha virt. eigenvalues --    0.93530   0.96035   0.97395   1.00719   1.04657
 Alpha virt. eigenvalues --    1.11013   1.11228   1.17130   1.21964   1.25607
 Alpha virt. eigenvalues --    1.26435   1.46778   1.50254   1.50573   1.51484
 Alpha virt. eigenvalues --    1.55225   1.65377   1.75692   1.78309   1.83809
 Alpha virt. eigenvalues --    1.89495   1.90232   1.95948   1.99553   2.01067
 Alpha virt. eigenvalues --    2.09461   2.10721   2.12908   2.22291   2.25526
 Alpha virt. eigenvalues --    2.29363   2.32795   2.39179   2.48308   2.51881
 Alpha virt. eigenvalues --    2.58671   2.66671   2.70445   2.71173   2.84585
 Alpha virt. eigenvalues --    3.04523   4.07068   4.12272   4.15001   4.22202
 Alpha virt. eigenvalues --    4.26644   4.45718
          Condensed to atoms (all electrons):
               1          2          3          4          5          6
     1  C    5.035459   0.658185  -0.039921  -0.016825   0.000111  -0.001976
     2  C    0.658185   4.775033   0.436616  -0.039546   0.000048  -0.001024
     3  C   -0.039921   0.436616   4.776142   0.658213  -0.000352   0.000074
     4  C   -0.016825  -0.039546   0.658213   5.047509  -0.002543  -0.000122
     5  C    0.000111   0.000048  -0.000352  -0.002543   4.931852   0.685395
     6  C   -0.001976  -0.001024   0.000074  -0.000122   0.685395   4.936437
     7  H    0.367729  -0.033380  -0.011211   0.005656  -0.000008   0.000043
     8  H    0.363231  -0.023621   0.004673   0.000113   0.000004  -0.000057
     9  H   -0.052626   0.362670  -0.045251   0.005334   0.000004  -0.000009
    10  H    0.005295  -0.045354   0.362971  -0.052343  -0.000001  -0.000001
    11  H    0.005301  -0.011256  -0.033076   0.364621   0.002357   0.001117
    12  H    0.000115   0.004648  -0.023541   0.363055   0.000002  -0.000001
    13  H    0.000000   0.000000   0.000003   0.000027   0.375851  -0.036861
    14  H   -0.000131   0.000007   0.001277   0.004481   0.372456  -0.034094
    15  H    0.000035   0.000008   0.000001  -0.000002  -0.037110   0.375140
    16  H    0.006786   0.003001  -0.000200  -0.000244  -0.033426   0.370087
               7          8          9         10         11         12
     1  C    0.367729   0.363231  -0.052626   0.005295   0.005301   0.000115
     2  C   -0.033380  -0.023621   0.362670  -0.045354  -0.011256   0.004648
     3  C   -0.011211   0.004673  -0.045251   0.362971  -0.033076  -0.023541
     4  C    0.005656   0.000113   0.005334  -0.052343   0.364621   0.363055
     5  C   -0.000008   0.000004   0.000004  -0.000001   0.002357   0.000002
     6  C    0.000043  -0.000057  -0.000009  -0.000001   0.001117  -0.000001
     7  H    0.556947  -0.041547   0.005921   0.000075   0.002267  -0.000117
     8  H   -0.041547   0.561238  -0.007702  -0.000170  -0.000106   0.000002
     9  H    0.005921  -0.007702   0.604155  -0.004124   0.000077  -0.000171
    10  H    0.000075  -0.000170  -0.004124   0.604169   0.005799  -0.007710
    11  H    0.002267  -0.000106   0.000077   0.005799   0.550012  -0.040827
    12  H   -0.000117   0.000002  -0.000171  -0.007710  -0.040827   0.561237
    13  H    0.000000   0.000000   0.000000   0.000000   0.000004  -0.000001
    14  H   -0.000019  -0.000003  -0.000016   0.000002   0.000172   0.000029
    15  H    0.000001  -0.000002   0.000000   0.000000   0.000001   0.000000
    16  H   -0.000021   0.000222   0.000038   0.000005   0.000165   0.000004
              13         14         15         16
     1  C    0.000000  -0.000131   0.000035   0.006786
     2  C    0.000000   0.000007   0.000008   0.003001
     3  C    0.000003   0.001277   0.000001  -0.000200
     4  C    0.000027   0.004481  -0.000002  -0.000244
     5  C    0.375851   0.372456  -0.037110  -0.033426
     6  C   -0.036861  -0.034094   0.375140   0.370087
     7  H    0.000000  -0.000019   0.000001  -0.000021
     8  H    0.000000  -0.000003  -0.000002   0.000222
     9  H    0.000000  -0.000016   0.000000   0.000038
    10  H    0.000000   0.000002   0.000000   0.000005
    11  H    0.000004   0.000172   0.000001   0.000165
    12  H   -0.000001   0.000029   0.000000   0.000004
    13  H    0.568792  -0.042505  -0.008787   0.005011
    14  H   -0.042505   0.551657   0.005102  -0.008860
    15  H   -0.008787   0.005102   0.569583  -0.041928
    16  H    0.005011  -0.008860  -0.041928   0.547957
 Mulliken charges:
               1
     1  C   -0.330768
     2  C   -0.086035
     3  C   -0.086417
     4  C   -0.337386
     5  C   -0.294639
     6  C   -0.294147
     7  H    0.147662
     8  H    0.143724
     9  H    0.131700
    10  H    0.131389
    11  H    0.153372
    12  H    0.143274
    13  H    0.138468
    14  H    0.150444
    15  H    0.137956
    16  H    0.151402
 Sum of Mulliken charges =   0.00000
 Mulliken charges with hydrogens summed into heavy atoms:
               1
     1  C   -0.039381
     2  C    0.045665
     3  C    0.044972
     4  C   -0.040739
     5  C   -0.005728
     6  C   -0.004789
 APT charges:
               1
     1  C   -0.723821
     2  C   -0.589489
     3  C   -0.574861
     4  C   -0.750430
     5  C   -0.748176
     6  C   -0.791007
     7  H    0.298944
     8  H    0.541052
     9  H    0.476528
    10  H    0.558548
    11  H    0.175194
    12  H    0.594664
    13  H    0.710042
    14  H    0.083601
    15  H    0.683357
    16  H    0.055856
 Sum of APT charges =   0.00000
 APT charges with hydrogens summed into heavy atoms:
               1
     1  C    0.116175
     2  C   -0.112961
     3  C   -0.016314
     4  C    0.019427
     5  C    0.045466
     6  C   -0.051793
 Electronic spatial extent (au):  <R**2>=           1002.1530
 Charge=              0.0000 electrons
 Dipole moment (field-independent basis, Debye):
    X=             -0.0123    Y=             -0.1689    Z=             -0.2373  Tot=              0.2916
 Quadrupole moment (field-independent basis, Debye-Ang):
   XX=            -34.9518   YY=            -36.6202   ZZ=            -40.7778
   XY=             -0.1201   XZ=             -0.3576   YZ=              2.1345
 Traceless Quadrupole moment (field-independent basis, Debye-Ang):
   XX=              2.4982   YY=              0.8297   ZZ=             -3.3279
   XY=             -0.1201   XZ=             -0.3576   YZ=              2.1345
 Octapole moment (field-independent basis, Debye-Ang**2):
  XXX=             -0.0658  YYY=             -6.9350  ZZZ=              4.2248  XYY=             -0.9927
  XXY=             -0.1803  XXZ=             -0.9898  XZZ=              3.0163  YZZ=              4.5203
  YYZ=             -3.6822  XYZ=              1.1129
 Hexadecapole moment (field-independent basis, Debye-Ang**3):
 XXXX=           -330.0448 YYYY=           -205.7272 ZZZZ=           -848.8334 XXXY=              1.8873
 XXXZ=             -6.1687 YYYX=              1.2160 YYYZ=           -136.2884 ZZZX=             -2.5821
 ZZZY=           -116.5829 XXYY=            -91.8612 XXZZ=           -188.2210 YYZZ=           -157.4769
 XXYZ=            -41.5491 YYXZ=             -2.4056 ZZXY=             -4.5553
 N-N= 1.965515966854D+02 E-N=-9.349765684029D+02  KE= 2.321610355960D+02
  Exact polarizability:       0.000       0.000       0.000       0.000       0.000       0.000
 Approx polarizability:     133.958      -2.380      86.579       3.882      15.093      50.527
