 Default is to use a total of   8 processors:
                                8 via shared-memory
                                1 via Linda
 Entering Link 1 = C:\G16W\l1.exe PID=     17956.
  
 Copyright (c) 1988-2019, Gaussian, Inc.  All Rights Reserved.
  
 This is part of the Gaussian(R) 16 program.  It is based on
 the Gaussian(R) 09 system (copyright 2009, Gaussian, Inc.),
 the Gaussian(R) 03 system (copyright 2003, Gaussian, Inc.),
 the Gaussian(R) 98 system (copyright 1998, Gaussian, Inc.),
 the Gaussian(R) 94 system (copyright 1995, Gaussian, Inc.),
 the Gaussian 92(TM) system (copyright 1992, Gaussian, Inc.),
 the Gaussian 90(TM) system (copyright 1990, Gaussian, Inc.),
 the Gaussian 88(TM) system (copyright 1988, Gaussian, Inc.),
 the Gaussian 86(TM) system (copyright 1986, Carnegie Mellon
 University), and the Gaussian 82(TM) system (copyright 1983,
 Carnegie Mellon University). Gaussian is a federally registered
 trademark of Gaussian, Inc.
  
 This software contains proprietary and confidential information,
 including trade secrets, belonging to Gaussian, Inc.
  
 This software is provided under written license and may be
 used, copied, transmitted, or stored only in accord with that
 written license.
  
 The following legend is applicable only to US Government
 contracts under FAR:
  
                    RESTRICTED RIGHTS LEGEND
  
 Use, reproduction and disclosure by the US Government is
 subject to restrictions as set forth in subparagraphs (a)
 and (c) of the Commercial Computer Software - Restricted
 Rights clause in FAR 52.227-19.
  
 Gaussian, Inc.
 340 Quinnipiac St., Bldg. 40, Wallingford CT 06492
  
  
 ---------------------------------------------------------------
 Warning -- This program may not be used in any manner that
 competes with the business of Gaussian, Inc. or will provide
 assistance to any competitor of Gaussian, Inc.  The licensee
 of this program is prohibited from giving any competitor of
 Gaussian, Inc. access to this program.  By using this program,
 the user acknowledges that Gaussian, Inc. is engaged in the
 business of creating and licensing software in the field of
 computational chemistry and represents and warrants to the
 licensee that it is not a competitor of Gaussian, Inc. and that
 it will not use this program in any manner prohibited above.
 ---------------------------------------------------------------
  

 Cite this work as:
 Gaussian 16, Revision C.01,
 M. J. Frisch, G. W. Trucks, H. B. Schlegel, G. E. Scuseria, 
 M. A. Robb, J. R. Cheeseman, G. Scalmani, V. Barone, 
 G. A. Petersson, H. Nakatsuji, X. Li, M. Caricato, A. V. Marenich, 
 J. Bloino, B. G. Janesko, R. Gomperts, B. Mennucci, H. P. Hratchian, 
 J. V. Ortiz, A. F. Izmaylov, J. L. Sonnenberg, D. Williams-Young, 
 F. Ding, F. Lipparini, F. Egidi, J. Goings, B. Peng, A. Petrone, 
 T. Henderson, D. Ranasinghe, V. G. Zakrzewski, J. Gao, N. Rega, 
 G. Zheng, W. Liang, M. Hada, M. Ehara, K. Toyota, R. Fukuda, 
 J. Hasegawa, M. Ishida, T. Nakajima, Y. Honda, O. Kitao, H. Nakai, 
 T. Vreven, K. Throssell, J. A. Montgomery, Jr., J. E. Peralta, 
 F. Ogliaro, M. J. Bearpark, J. J. Heyd, E. N. Brothers, K. N. Kudin, 
 V. N. Staroverov, T. A. Keith, R. Kobayashi, J. Normand, 
 K. Raghavachari, A. P. Rendell, J. C. Burant, S. S. Iyengar, 
 J. Tomasi, M. Cossi, J. M. Millam, M. Klene, C. Adamo, R. Cammi, 
 J. W. Ochterski, R. L. Martin, K. Morokuma, O. Farkas, 
 J. B. Foresman, and D. J. Fox, Gaussian, Inc., Wallingford CT, 2019.
 
 ******************************************
 Gaussian 16:  EM64W-G16RevC.01 30-May-2019
                12-Nov-2025 
 ******************************************
 %chk=C:\Users\al6323\OneDrive - Imperial College London\Desktop\TSR202511112\TS_
 guess_opt_TS(Berny).chk
 Default route: MaxDisk=10GB
 ----------------------------------------------------------------------
 # opt=(calcfc,tight,ts,maxcycles=200,noeigen) b3lyp/6-31g(d) nosymm sc
 f=tight
 ----------------------------------------------------------------------
 1/5=1,6=200,7=10,10=4,11=1,18=20,26=3,38=1/1,3;
 2/9=110,12=2,15=1,17=6,18=5,40=1/2;
 3/5=1,6=6,7=1,11=2,25=1,30=1,71=2,74=-5,140=1/1,2,3;
 4//1;
 5/5=2,32=2,38=5/2;
 8/6=4,10=90,11=11/1;
 11/6=1,8=1,9=11,15=111,16=1,31=1/1,2,10;
 10/6=1,13=1,31=1/2;
 6/7=2,8=2,9=2,10=2,28=1/1;
 7/10=1,25=1,30=1/1,2,3,16;
 1/5=1,6=200,7=10,10=4,11=1,18=20,26=3/3(2);
 2/9=110,15=1/2;
 99//99;
 2/9=110,15=1/2;
 3/5=1,6=6,7=1,11=2,25=1,30=1,71=1,74=-5/1,2,3;
 4/5=5,16=3,69=1/1;
 5/5=2,32=2,38=5/2;
 7/30=1/1,2,3,16;
 1/5=1,6=200,7=10,11=1,18=20,26=3/3(-5);
 2/9=110,15=1/2;
 6/7=2,8=2,9=2,10=2,19=2,28=1/1;
 99/9=1/99;
 ------------
 TS Benry DFT
 ------------
 Symbolic Z-matrix:
 Charge =  0 Multiplicity = 1
 C                    -0.68772   0.92899   0.06873 
 C                     0.04719  -0.17869  -0.34959 
 C                     1.44448  -0.18106  -0.33419 
 C                     2.17378   0.9241    0.10031 
 C                     1.42028   1.23159   2.17103 
 C                     0.02091   1.23391   2.15561 
 H                    -0.32692   1.9307   -0.13972 
 H                    -1.76955   0.85536   0.152 
 H                    -0.46826  -1.12925  -0.47899 
 H                     1.95941  -1.13338  -0.45226 
 H                     1.82109   1.92704  -0.11598 
 H                     3.25325   0.84677   0.20736 
 H                     1.95235   2.17299   2.27796 
 H                     1.94757   0.3659    2.55703 
 H                    -0.51025   2.17707   2.25087 
 H                    -0.51762   0.36997   2.52982 
 
 Add virtual bond connecting atoms C5         and C4         Dist= 4.20D+00.
 Add virtual bond connecting atoms C6         and C1         Dist= 4.20D+00.

 GradGradGradGradGradGradGradGradGradGradGradGradGradGradGradGradGradGrad
 Berny optimization.
 Initialization pass.
                           ----------------------------
                           !    Initial Parameters    !
                           ! (Angstroms and Degrees)  !
 --------------------------                            --------------------------
 ! Name  Definition              Value          Derivative Info.                !
 --------------------------------------------------------------------------------
 ! R1    R(1,2)                  1.3936         calculate D2E/DX2 analytically  !
 ! R2    R(1,6)                  2.2249         calculate D2E/DX2 analytically  !
 ! R3    R(1,7)                  1.0849         calculate D2E/DX2 analytically  !
 ! R4    R(1,8)                  1.0875         calculate D2E/DX2 analytically  !
 ! R5    R(2,3)                  1.3974         calculate D2E/DX2 analytically  !
 ! R6    R(2,9)                  1.089          calculate D2E/DX2 analytically  !
 ! R7    R(3,4)                  1.3936         calculate D2E/DX2 analytically  !
 ! R8    R(3,10)                 1.089          calculate D2E/DX2 analytically  !
 ! R9    R(4,5)                  2.2249         calculate D2E/DX2 analytically  !
 ! R10   R(4,11)                 1.0849         calculate D2E/DX2 analytically  !
 ! R11   R(4,12)                 1.0875         calculate D2E/DX2 analytically  !
 ! R12   R(5,6)                  1.3994         calculate D2E/DX2 analytically  !
 ! R13   R(5,13)                 1.0866         calculate D2E/DX2 analytically  !
 ! R14   R(5,14)                 1.0846         calculate D2E/DX2 analytically  !
 ! R15   R(6,15)                 1.0866         calculate D2E/DX2 analytically  !
 ! R16   R(6,16)                 1.0846         calculate D2E/DX2 analytically  !
 ! A1    A(2,1,6)              102.8576         calculate D2E/DX2 analytically  !
 ! A2    A(2,1,7)              120.0552         calculate D2E/DX2 analytically  !
 ! A3    A(2,1,8)              119.5887         calculate D2E/DX2 analytically  !
 ! A4    A(6,1,7)               87.0048         calculate D2E/DX2 analytically  !
 ! A5    A(6,1,8)              104.7316         calculate D2E/DX2 analytically  !
 ! A6    A(7,1,8)              114.0818         calculate D2E/DX2 analytically  !
 ! A7    A(1,2,3)              121.6931         calculate D2E/DX2 analytically  !
 ! A8    A(1,2,9)              118.6754         calculate D2E/DX2 analytically  !
 ! A9    A(3,2,9)              118.2358         calculate D2E/DX2 analytically  !
 ! A10   A(2,3,4)              121.6942         calculate D2E/DX2 analytically  !
 ! A11   A(2,3,10)             118.2351         calculate D2E/DX2 analytically  !
 ! A12   A(4,3,10)             118.675          calculate D2E/DX2 analytically  !
 ! A13   A(3,4,5)              102.8586         calculate D2E/DX2 analytically  !
 ! A14   A(3,4,11)             120.0553         calculate D2E/DX2 analytically  !
 ! A15   A(3,4,12)             119.5879         calculate D2E/DX2 analytically  !
 ! A16   A(5,4,11)              87.0011         calculate D2E/DX2 analytically  !
 ! A17   A(5,4,12)             104.7362         calculate D2E/DX2 analytically  !
 ! A18   A(11,4,12)            114.0813         calculate D2E/DX2 analytically  !
 ! A19   A(4,5,6)              109.1849         calculate D2E/DX2 analytically  !
 ! A20   A(4,5,13)              92.6069         calculate D2E/DX2 analytically  !
 ! A21   A(4,5,14)              93.2254         calculate D2E/DX2 analytically  !
 ! A22   A(6,5,13)             119.2925         calculate D2E/DX2 analytically  !
 ! A23   A(6,5,14)             119.4304         calculate D2E/DX2 analytically  !
 ! A24   A(13,5,14)            114.7336         calculate D2E/DX2 analytically  !
 ! A25   A(1,6,5)              109.1833         calculate D2E/DX2 analytically  !
 ! A26   A(1,6,15)              92.6075         calculate D2E/DX2 analytically  !
 ! A27   A(1,6,16)              93.2277         calculate D2E/DX2 analytically  !
 ! A28   A(5,6,15)             119.292          calculate D2E/DX2 analytically  !
 ! A29   A(5,6,16)             119.4292         calculate D2E/DX2 analytically  !
 ! A30   A(15,6,16)            114.7347         calculate D2E/DX2 analytically  !
 ! D1    D(6,1,2,3)            -57.5173         calculate D2E/DX2 analytically  !
 ! D2    D(6,1,2,9)            108.7567         calculate D2E/DX2 analytically  !
 ! D3    D(7,1,2,3)             36.5054         calculate D2E/DX2 analytically  !
 ! D4    D(7,1,2,9)           -157.2205         calculate D2E/DX2 analytically  !
 ! D5    D(8,1,2,3)           -172.9565         calculate D2E/DX2 analytically  !
 ! D6    D(8,1,2,9)             -6.6824         calculate D2E/DX2 analytically  !
 ! D7    D(2,1,6,5)             49.4628         calculate D2E/DX2 analytically  !
 ! D8    D(2,1,6,15)           171.7665         calculate D2E/DX2 analytically  !
 ! D9    D(2,1,6,16)           -73.2672         calculate D2E/DX2 analytically  !
 ! D10   D(7,1,6,5)            -70.701          calculate D2E/DX2 analytically  !
 ! D11   D(7,1,6,15)            51.6026         calculate D2E/DX2 analytically  !
 ! D12   D(7,1,6,16)           166.569          calculate D2E/DX2 analytically  !
 ! D13   D(8,1,6,5)            175.1739         calculate D2E/DX2 analytically  !
 ! D14   D(8,1,6,15)           -62.5224         calculate D2E/DX2 analytically  !
 ! D15   D(8,1,6,16)            52.4439         calculate D2E/DX2 analytically  !
 ! D16   D(1,2,3,4)              0.0016         calculate D2E/DX2 analytically  !
 ! D17   D(1,2,3,10)           166.3341         calculate D2E/DX2 analytically  !
 ! D18   D(9,2,3,4)           -166.3305         calculate D2E/DX2 analytically  !
 ! D19   D(9,2,3,10)             0.002          calculate D2E/DX2 analytically  !
 ! D20   D(2,3,4,5)             57.5134         calculate D2E/DX2 analytically  !
 ! D21   D(2,3,4,11)           -36.5057         calculate D2E/DX2 analytically  !
 ! D22   D(2,3,4,12)           172.9587         calculate D2E/DX2 analytically  !
 ! D23   D(10,3,4,5)          -108.7611         calculate D2E/DX2 analytically  !
 ! D24   D(10,3,4,11)          157.2199         calculate D2E/DX2 analytically  !
 ! D25   D(10,3,4,12)            6.6842         calculate D2E/DX2 analytically  !
 ! D26   D(3,4,5,6)            -49.455          calculate D2E/DX2 analytically  !
 ! D27   D(3,4,5,13)          -171.7594         calculate D2E/DX2 analytically  !
 ! D28   D(3,4,5,14)            73.2757         calculate D2E/DX2 analytically  !
 ! D29   D(11,4,5,6)            70.7082         calculate D2E/DX2 analytically  !
 ! D30   D(11,4,5,13)          -51.5962         calculate D2E/DX2 analytically  !
 ! D31   D(11,4,5,14)         -166.561          calculate D2E/DX2 analytically  !
 ! D32   D(12,4,5,6)          -175.168          calculate D2E/DX2 analytically  !
 ! D33   D(12,4,5,13)           62.5277         calculate D2E/DX2 analytically  !
 ! D34   D(12,4,5,14)          -52.4372         calculate D2E/DX2 analytically  !
 ! D35   D(4,5,6,1)             -0.0038         calculate D2E/DX2 analytically  !
 ! D36   D(4,5,6,15)          -104.5052         calculate D2E/DX2 analytically  !
 ! D37   D(4,5,6,16)           105.3463         calculate D2E/DX2 analytically  !
 ! D38   D(13,5,6,1)           104.4982         calculate D2E/DX2 analytically  !
 ! D39   D(13,5,6,15)           -0.0032         calculate D2E/DX2 analytically  !
 ! D40   D(13,5,6,16)         -150.1517         calculate D2E/DX2 analytically  !
 ! D41   D(14,5,6,1)          -105.3527         calculate D2E/DX2 analytically  !
 ! D42   D(14,5,6,15)          150.1459         calculate D2E/DX2 analytically  !
 ! D43   D(14,5,6,16)           -0.0026         calculate D2E/DX2 analytically  !
 --------------------------------------------------------------------------------
 Trust Radius=3.00D-01 FncErr=1.00D-07 GrdErr=1.00D-06 EigMax=2.50D+02 EigMin=1.00D-04
 Number of steps in this run=    100 maximum allowed number of steps=    100.
 Search for a saddle point of order  1.
 GradGradGradGradGradGradGradGradGradGradGradGradGradGradGradGradGradGrad

                          Input orientation:                          
 ---------------------------------------------------------------------
 Center     Atomic      Atomic             Coordinates (Angstroms)
 Number     Number       Type             X           Y           Z
 ---------------------------------------------------------------------
      1          6           0       -0.687723    0.928986    0.068728
      2          6           0        0.047188   -0.178686   -0.349594
      3          6           0        1.444485   -0.181061   -0.334186
      4          6           0        2.173778    0.924098    0.100308
      5          6           0        1.420276    1.231587    2.171034
      6          6           0        0.020914    1.233912    2.155611
      7          1           0       -0.326918    1.930704   -0.139716
      8          1           0       -1.769551    0.855357    0.152000
      9          1           0       -0.468258   -1.129250   -0.478991
     10          1           0        1.959413   -1.133379   -0.452256
     11          1           0        1.821087    1.927040   -0.115975
     12          1           0        3.253253    0.846771    0.207364
     13          1           0        1.952347    2.172986    2.277958
     14          1           0        1.947573    0.365898    2.557027
     15          1           0       -0.510246    2.177073    2.250869
     16          1           0       -0.517616    0.369966    2.529822
 ---------------------------------------------------------------------
                    Distance matrix (angstroms):
                    1          2          3          4          5
     1  C    0.000000
     2  C    1.393565   0.000000
     3  C    2.437387   1.397384   0.000000
     4  C    2.861679   2.437402   1.393567   0.000000
     5  C    2.992477   3.198094   2.876159   2.224909   0.000000
     6  C    2.224910   2.876139   3.198092   2.992504   1.399449
     7  H    1.084928   2.152563   2.763194   2.706353   2.980104
     8  H    1.087524   2.149740   3.411828   3.944267   3.793816
     9  H    2.141144   1.089037   2.139770   3.395906   4.020292
    10  H    3.395895   2.139763   1.089036   2.141142   3.572867
    11  H    2.706354   2.763219   2.152565   1.084925   2.423781
    12  H    3.944271   3.411835   2.149734   1.087524   2.713648
    13  H    3.660355   4.007995   3.552852   2.520101   1.086630
    14  H    3.667899   3.515178   2.985193   2.529471   1.084643
    15  H    2.520111   3.552850   4.008028   3.660444   2.151101
    16  H    2.529511   2.985140   3.515112   3.667860   2.150940
                    6          7          8          9         10
     6  C    0.000000
     7  H    2.423847   0.000000
     8  H    2.713581   1.822816   0.000000
     9  H    3.572807   3.081948   2.455643   0.000000
    10  H    4.020300   3.835831   4.269118   2.427822   0.000000
    11  H    2.980127   2.148139   3.756727   3.835856   3.081945
    12  H    3.793885   3.756728   5.023117   4.269120   2.455628
    13  H    2.151108   3.331501   4.484235   4.936077   4.287909
    14  H    2.150953   3.859320   4.454294   4.158018   3.362105
    15  H    1.086627   2.410230   2.781732   4.287852   4.936112
    16  H    1.084643   3.098178   2.730748   3.361999   4.157945
                   11         12         13         14         15
    11  H    0.000000
    12  H    1.822809   0.000000
    13  H    2.410111   2.781827   0.000000
    14  H    3.098081   2.730742   1.828515   0.000000
    15  H    3.331604   4.484367   2.462746   3.068381   0.000000
    16  H    3.859307   4.454279   3.068393   2.465342   1.828526
                   16
    16  H    0.000000
 Symmetry turned off by external request.
 Stoichiometry    C6H10
 Framework group  C1[X(C6H10)]
 Deg. of freedom    42
 Full point group                 C1      NOp   1
 Rotational constants (GHZ):           4.3610732           3.5107976           2.2813301
 Standard basis: 6-31G(d) (6D, 7F)
   110 basis functions,   208 primitive gaussians,   110 cartesian basis functions
    23 alpha electrons       23 beta electrons
       nuclear repulsion energy       224.4927288547 Hartrees.
 NAtoms=   16 NActive=   16 NUniq=   16 SFac= 1.00D+00 NAtFMM=   60 NAOKFM=F Big=F
 Integral buffers will be    131072 words long.
 Raffenetti 2 integral format.
 Two-electron integral symmetry is turned off.
 One-electron integrals computed using PRISM.
 NBasis=   110 RedAO= T EigKep=  2.28D-03  NBF=   110
 NBsUse=   110 1.00D-06 EigRej= -1.00D+00 NBFU=   110
 ExpMin= 1.61D-01 ExpMax= 3.05D+03 ExpMxC= 4.57D+02 IAcc=3 IRadAn=         5 AccDes= 0.00D+00
 Harris functional with IExCor=  402 and IRadAn=       5 diagonalized for initial guess.
 HarFok:  IExCor=  402 AccDes= 0.00D+00 IRadAn=         5 IDoV= 1 UseB2=F ITyADJ=14
 ICtDFT=  3500011 ScaDFX=  1.000000  1.000000  1.000000  1.000000
 FoFCou: FMM=F IPFlag=           0 FMFlag=      100000 FMFlg1=           0
         NFxFlg=           0 DoJE=T BraDBF=F KetDBF=T FulRan=T
         wScrn=  0.000000 ICntrl=       500 IOpCl=  0 I1Cent=   200000004 NGrid=           0
         NMat0=    1 NMatS0=      1 NMatT0=    0 NMatD0=    1 NMtDS0=    0 NMtDT0=    0
 Symmetry not used in FoFCou.
 Requested convergence on RMS density matrix=1.00D-08 within 128 cycles.
 Requested convergence on MAX density matrix=1.00D-06.
 Requested convergence on             energy=1.00D-06.
 No special actions if energy rises.
 Integral accuracy reduced to 1.0D-05 until final iterations.
 Initial convergence to 1.0D-05 achieved.  Increase integral accuracy.
 SCF Done:  E(RB3LYP) =  -234.544480924     A.U. after   12 cycles
            NFock= 12  Conv=0.25D-08     -V/T= 2.0105
 DoSCS=F DFT=T ScalE2(SS,OS)=  1.000000  1.000000
 Range of M.O.s used for correlation:     1   110
 NBasis=   110 NAE=    23 NBE=    23 NFC=     0 NFV=     0
 NROrb=    110 NOA=    23 NOB=    23 NVA=    87 NVB=    87
 Symmetrizing basis deriv contribution to polar:
 IMax=3 JMax=2 DiffMx= 0.00D+00
 G2DrvN: will do    17 centers at a time, making    1 passes.
 Calling FoFCou, ICntrl=  3107 FMM=F I1Cent=   0 AccDes= 0.00D+00.
 End of G2Drv F.D. properties file   721 does not exist.
 End of G2Drv F.D. properties file   722 does not exist.
 End of G2Drv F.D. properties file   788 does not exist.
          IDoAtm=1111111111111111
          Differentiating once with respect to nuclear coordinates.
 Keep R1 ints in memory in canonical form, NReq=26109346.
          There are    51 degrees of freedom in the 1st order CPHF.  IDoFFX=6 NUNeed=     0.
     45 vectors produced by pass  0 Test12= 3.92D-15 1.96D-09 XBig12= 9.33D-02 1.15D-01.
 AX will form    45 AO Fock derivatives at one time.
     45 vectors produced by pass  1 Test12= 3.92D-15 1.96D-09 XBig12= 1.65D-02 3.33D-02.
     45 vectors produced by pass  2 Test12= 3.92D-15 1.96D-09 XBig12= 1.16D-04 2.78D-03.
     45 vectors produced by pass  3 Test12= 3.92D-15 1.96D-09 XBig12= 2.17D-07 8.08D-05.
     45 vectors produced by pass  4 Test12= 3.92D-15 1.96D-09 XBig12= 1.39D-10 1.60D-06.
     21 vectors produced by pass  5 Test12= 3.92D-15 1.96D-09 XBig12= 6.44D-14 3.63D-08.
 InvSVY:  IOpt=1 It=  1 EMax= 8.05D-16
 Solved reduced A of dimension   246 with    51 vectors.
 End of Minotr F.D. properties file   721 does not exist.
 End of Minotr F.D. properties file   722 does not exist.
 End of Minotr F.D. properties file   788 does not exist.

 **********************************************************************

            Population analysis using the SCF Density.

 **********************************************************************

 Alpha  occ. eigenvalues --  -10.18654 -10.18653 -10.18335 -10.18282 -10.17475
 Alpha  occ. eigenvalues --  -10.17421  -0.80010  -0.73822  -0.70894  -0.61744
 Alpha  occ. eigenvalues --   -0.57629  -0.51357  -0.48415  -0.45778  -0.41911
 Alpha  occ. eigenvalues --   -0.39971  -0.39780  -0.36101  -0.35121  -0.33651
 Alpha  occ. eigenvalues --   -0.33596  -0.22279  -0.21748
 Alpha virt. eigenvalues --   -0.00481   0.01731   0.09655   0.11089   0.12769
 Alpha virt. eigenvalues --    0.14306   0.14805   0.15132   0.17382   0.20450
 Alpha virt. eigenvalues --    0.20481   0.24040   0.25009   0.28901   0.31909
 Alpha virt. eigenvalues --    0.36645   0.42623   0.46980   0.50334   0.52295
 Alpha virt. eigenvalues --    0.55618   0.57757   0.58493   0.61580   0.62616
 Alpha virt. eigenvalues --    0.64166   0.65886   0.67695   0.68077   0.73363
 Alpha virt. eigenvalues --    0.74741   0.81805   0.84753   0.86224   0.86381
 Alpha virt. eigenvalues --    0.86685   0.88339   0.89362   0.93816   0.95288
 Alpha virt. eigenvalues --    0.96146   0.98762   1.00129   1.05591   1.06915
 Alpha virt. eigenvalues --    1.12463   1.15451   1.23283   1.29592   1.38875
 Alpha virt. eigenvalues --    1.39788   1.49342   1.52998   1.61128   1.61565
 Alpha virt. eigenvalues --    1.74776   1.78876   1.81140   1.92797   1.93143
 Alpha virt. eigenvalues --    1.97890   1.98051   2.01395   2.04557   2.05262
 Alpha virt. eigenvalues --    2.08355   2.14206   2.18502   2.19305   2.24422
 Alpha virt. eigenvalues --    2.27103   2.28120   2.42373   2.51795   2.57869
 Alpha virt. eigenvalues --    2.59723   2.61120   2.65358   2.69054   2.86669
 Alpha virt. eigenvalues --    3.04206   4.12011   4.22869   4.28251   4.28742
 Alpha virt. eigenvalues --    4.43698   4.54302
          Condensed to atoms (all electrons):
               1          2          3          4          5          6
     1  C    5.097130   0.545317  -0.043852  -0.031241  -0.015380   0.116299
     2  C    0.545317   4.795073   0.564827  -0.043851  -0.024154  -0.014602
     3  C   -0.043852   0.564827   4.795071   0.545317  -0.014601  -0.024154
     4  C   -0.031241  -0.043851   0.545317   5.097140   0.116299  -0.015379
     5  C   -0.015380  -0.024154  -0.014601   0.116299   5.032207   0.544216
     6  C    0.116299  -0.014602  -0.024154  -0.015379   0.544216   5.032205
     7  H    0.370624  -0.029863  -0.013087   0.005654  -0.006547  -0.015524
     8  H    0.362060  -0.027461   0.005567   0.000428   0.001041  -0.006006
     9  H   -0.059645   0.369926  -0.045241   0.006648  -0.000111   0.000826
    10  H    0.006648  -0.045241   0.369925  -0.059645   0.000826  -0.000111
    11  H    0.005654  -0.013086  -0.029864   0.370624  -0.015526  -0.006547
    12  H    0.000428   0.005567  -0.027460   0.362060  -0.006005   0.001041
    13  H    0.001005   0.000587   0.000387  -0.009983   0.375662  -0.037883
    14  H    0.000779   0.000617  -0.002763  -0.008977   0.381945  -0.034567
    15  H   -0.009982   0.000386   0.000587   0.001005  -0.037882   0.375662
    16  H   -0.008976  -0.002763   0.000617   0.000778  -0.034567   0.381944
               7          8          9         10         11         12
     1  C    0.370624   0.362060  -0.059645   0.006648   0.005654   0.000428
     2  C   -0.029863  -0.027461   0.369926  -0.045241  -0.013086   0.005567
     3  C   -0.013087   0.005567  -0.045241   0.369925  -0.029864  -0.027460
     4  C    0.005654   0.000428   0.006648  -0.059645   0.370624   0.362060
     5  C   -0.006547   0.001041  -0.000111   0.000826  -0.015526  -0.006005
     6  C   -0.015524  -0.006006   0.000826  -0.000111  -0.006547   0.001041
     7  H    0.565886  -0.042700   0.005323  -0.000021   0.005329  -0.000086
     8  H   -0.042700   0.574942  -0.007152  -0.000156  -0.000086  -0.000009
     9  H    0.005323  -0.007152   0.617093  -0.008244  -0.000021  -0.000156
    10  H   -0.000021  -0.000156  -0.008244   0.617095   0.005323  -0.007152
    11  H    0.005329  -0.000086  -0.000021   0.005323   0.565886  -0.042700
    12  H   -0.000086  -0.000009  -0.000156  -0.007152  -0.042700   0.574942
    13  H    0.000472  -0.000030   0.000006  -0.000048  -0.002703   0.000435
    14  H    0.000001  -0.000028  -0.000002   0.000384   0.001076  -0.000799
    15  H   -0.002703   0.000435  -0.000048   0.000006   0.000471  -0.000030
    16  H    0.001076  -0.000799   0.000384  -0.000002   0.000001  -0.000028
              13         14         15         16
     1  C    0.001005   0.000779  -0.009982  -0.008976
     2  C    0.000587   0.000617   0.000386  -0.002763
     3  C    0.000387  -0.002763   0.000587   0.000617
     4  C   -0.009983  -0.008977   0.001005   0.000778
     5  C    0.375662   0.381945  -0.037882  -0.034567
     6  C   -0.037883  -0.034567   0.375662   0.381944
     7  H    0.000472   0.000001  -0.002703   0.001076
     8  H   -0.000030  -0.000028   0.000435  -0.000799
     9  H    0.000006  -0.000002  -0.000048   0.000384
    10  H   -0.000048   0.000384   0.000006  -0.000002
    11  H   -0.002703   0.001076   0.000471   0.000001
    12  H    0.000435  -0.000799  -0.000030  -0.000028
    13  H    0.571147  -0.041814  -0.008117   0.004769
    14  H   -0.041814   0.554418   0.004768  -0.007966
    15  H   -0.008117   0.004768   0.571141  -0.041813
    16  H    0.004769  -0.007966  -0.041813   0.554421
 Mulliken charges:
               1
     1  C   -0.336868
     2  C   -0.081279
     3  C   -0.081277
     4  C   -0.336876
     5  C   -0.297421
     6  C   -0.297421
     7  H    0.156167
     8  H    0.139953
     9  H    0.120414
    10  H    0.120413
    11  H    0.156168
    12  H    0.139952
    13  H    0.146111
    14  H    0.152927
    15  H    0.146114
    16  H    0.152924
 Sum of Mulliken charges =   0.00000
 Mulliken charges with hydrogens summed into heavy atoms:
               1
     1  C   -0.040748
     2  C    0.039135
     3  C    0.039136
     4  C   -0.040756
     5  C    0.001617
     6  C    0.001616
 APT charges:
               1
     1  C   -0.770047
     2  C   -0.552763
     3  C   -0.497524
     4  C   -0.769415
     5  C   -0.968570
     6  C   -0.954372
     7  H    0.443006
     8  H    0.427120
     9  H    0.341189
    10  H    0.439105
    11  H    0.376933
    12  H    0.636676
    13  H    0.613882
    14  H    0.419378
    15  H    0.505752
    16  H    0.309652
 Sum of APT charges =   0.00000
 APT charges with hydrogens summed into heavy atoms:
               1
     1  C    0.100079
     2  C   -0.211574
     3  C   -0.058419
     4  C    0.244193
     5  C    0.064689
     6  C   -0.138968
 Electronic spatial extent (au):  <R**2>=            856.9237
 Charge=              0.0000 electrons
 Dipole moment (field-independent basis, Debye):
    X=             -0.0040    Y=              0.2156    Z=              0.3977  Tot=              0.4524
 Quadrupole moment (field-independent basis, Debye-Ang):
   XX=            -35.7724   YY=            -35.2417   ZZ=            -40.9877
   XY=              0.1579   XZ=              0.3532   YZ=              0.2706
 Traceless Quadrupole moment (field-independent basis, Debye-Ang):
   XX=              1.5615   YY=              2.0922   ZZ=             -3.6538
   XY=              0.1579   XZ=              0.3532   YZ=              0.2706
 Octapole moment (field-independent basis, Debye-Ang**2):
  XXX=            -79.0231  YYY=            -73.8475  ZZZ=            -82.1629  XYY=            -25.9228
  XXY=            -25.5097  XXZ=            -22.9737  XZZ=            -30.0864  YZZ=            -29.9220
  YYZ=            -25.2323  XYZ=              0.2448
 Hexadecapole moment (field-independent basis, Debye-Ang**3):
 XXXX=           -429.8912 YYYY=           -262.0849 ZZZZ=           -475.0074 XXXY=            -55.7931
 XXXZ=            -50.9753 YYYX=            -53.5795 YYYZ=           -107.8296 ZZZX=            -60.2202
 ZZZY=           -127.8093 XXYY=           -116.9657 XXZZ=           -150.4438 YYZZ=           -121.0025
 XXYZ=            -34.8379 YYXZ=            -18.5412 ZZXY=            -21.5649
 N-N= 2.244927288547D+02 E-N=-9.910720859405D+02  KE= 2.321061074199D+02
  Exact polarizability:       0.000       0.000       0.000       0.000       0.000       0.000
 Approx polarizability:     136.210      -0.407      95.783       0.306      30.702     113.182
 Calling FoFJK, ICntrl=    100127 FMM=F ISym2X=0 I1Cent= 0 IOpClX= 0 NMat=1 NMatS=1 NMatT=0.
 -------------------------------------------------------------------
 Center     Atomic                   Forces (Hartrees/Bohr)
 Number     Number              X              Y              Z
 -------------------------------------------------------------------
      1        6           0.002225005    0.000956369    0.006548355
      2        6           0.000000600    0.000001382   -0.000000597
      3        6          -0.000000418   -0.000000719    0.000000383
      4        6          -0.002360222    0.000964662    0.006491324
      5        6           0.002362528   -0.000964369   -0.006490335
      6        6          -0.002226294   -0.000957179   -0.006549634
      7        1           0.000000978    0.000000139   -0.000000333
      8        1           0.000000340    0.000000507   -0.000001611
      9        1           0.000000508    0.000000734   -0.000001579
     10        1           0.000000195    0.000000115    0.000000052
     11        1           0.000000789    0.000000439    0.000001357
     12        1          -0.000000018    0.000000435    0.000001581
     13        1          -0.000001403   -0.000000863    0.000001504
     14        1          -0.000001203   -0.000000768    0.000000402
     15        1          -0.000000733   -0.000000533   -0.000000173
     16        1          -0.000000652   -0.000000351   -0.000000694
 -------------------------------------------------------------------
 Cartesian Forces:  Max     0.006549634 RMS     0.002014484
 FormGI is forming the generalized inverse of G from B-inverse, IUseBI=4.

 GradGradGradGradGradGradGradGradGradGradGradGradGradGradGradGradGradGrad
 Berny optimization.
 Internal  Forces:  Max     0.006900568 RMS     0.001039971
 Search for a saddle point.
 Step number   1 out of a maximum of  100
 All quantities printed in internal units (Hartrees-Bohrs-Radians)
 Swapping is turned off.
 Second derivative matrix not updated -- analytic derivatives used.
 ITU=  0
     Eigenvalues ---   -0.04198   0.00156   0.00552   0.01094   0.01527
     Eigenvalues ---    0.01682   0.01879   0.02316   0.02708   0.02714
     Eigenvalues ---    0.02990   0.03096   0.03674   0.04582   0.04981
     Eigenvalues ---    0.05040   0.05343   0.05482   0.05642   0.05791
     Eigenvalues ---    0.06185   0.06721   0.07642   0.10159   0.12115
     Eigenvalues ---    0.12635   0.14704   0.16973   0.35305   0.35375
     Eigenvalues ---    0.35786   0.35829   0.35856   0.35905   0.36032
     Eigenvalues ---    0.36429   0.36497   0.36569   0.37302   0.43883
     Eigenvalues ---    0.44133   0.49876
 Eigenvectors required to have negative eigenvalues:
                          R2        R9        D42       D40       D3
   1                   -0.58868  -0.58797  -0.17847   0.17846   0.16638
                          D21       D4        D24       R12       A4
   1                   -0.16631   0.14763  -0.14761   0.12222   0.11354
 RFO step:  Lambda0=1.548880863D-03 Lambda=-4.83673874D-04.
 Linear search not attempted -- option 19 set.
 Iteration  1 RMS(Cart)=  0.01229691 RMS(Int)=  0.00040319
 Iteration  2 RMS(Cart)=  0.00031457 RMS(Int)=  0.00024905
 Iteration  3 RMS(Cart)=  0.00000006 RMS(Int)=  0.00024905
 Variable       Old X    -DE/DX   Delta X   Delta X   Delta X     New X
                                 (Linear)    (Quad)   (Total)
    R1        2.63346  -0.00013   0.00000  -0.01871  -0.01868   2.61478
    R2        4.20447  -0.00690   0.00000   0.07620   0.07618   4.28065
    R3        2.05022   0.00000   0.00000  -0.00172  -0.00172   2.04850
    R4        2.05512   0.00000   0.00000  -0.00042  -0.00042   2.05470
    R5        2.64067  -0.00025   0.00000   0.01656   0.01663   2.65730
    R6        2.05798   0.00000   0.00000   0.00007   0.00007   2.05805
    R7        2.63346  -0.00013   0.00000  -0.01871  -0.01868   2.61478
    R8        2.05798   0.00000   0.00000   0.00007   0.00007   2.05805
    R9        4.20447  -0.00689   0.00000   0.07644   0.07642   4.28089
   R10        2.05021   0.00000   0.00000  -0.00172  -0.00172   2.04849
   R11        2.05512   0.00000   0.00000  -0.00043  -0.00043   2.05470
   R12        2.64458   0.00025   0.00000  -0.02390  -0.02397   2.62060
   R13        2.05343   0.00000   0.00000  -0.00072  -0.00072   2.05271
   R14        2.04968   0.00000   0.00000  -0.00092  -0.00092   2.04876
   R15        2.05343   0.00000   0.00000  -0.00072  -0.00072   2.05271
   R16        2.04968   0.00000   0.00000  -0.00092  -0.00092   2.04876
    A1        1.79520  -0.00013   0.00000  -0.00931  -0.00922   1.78599
    A2        2.09536   0.00008   0.00000   0.01023   0.00955   2.10490
    A3        2.08722  -0.00005   0.00000   0.00754   0.00732   2.09453
    A4        1.51852  -0.00006   0.00000  -0.03698  -0.03688   1.48164
    A5        1.82791   0.00016   0.00000  -0.00479  -0.00476   1.82315
    A6        1.99110   0.00000   0.00000   0.00685   0.00634   1.99744
    A7        2.12394  -0.00023   0.00000   0.00491   0.00483   2.12877
    A8        2.07128   0.00011   0.00000  -0.00026  -0.00023   2.07105
    A9        2.06360   0.00008   0.00000  -0.00514  -0.00510   2.05851
   A10        2.12396  -0.00023   0.00000   0.00491   0.00483   2.12880
   A11        2.06359   0.00008   0.00000  -0.00515  -0.00510   2.05849
   A12        2.07127   0.00011   0.00000  -0.00026  -0.00022   2.07105
   A13        1.79522  -0.00014   0.00000  -0.00933  -0.00923   1.78599
   A14        2.09536   0.00008   0.00000   0.01024   0.00956   2.10492
   A15        2.08720  -0.00005   0.00000   0.00755   0.00732   2.09452
   A16        1.51846  -0.00006   0.00000  -0.03703  -0.03693   1.48152
   A17        1.82799   0.00016   0.00000  -0.00475  -0.00472   1.82327
   A18        1.99110   0.00000   0.00000   0.00685   0.00634   1.99743
   A19        1.90564   0.00036   0.00000  -0.00096  -0.00099   1.90465
   A20        1.61630  -0.00014   0.00000  -0.02965  -0.02948   1.58681
   A21        1.62709  -0.00015   0.00000  -0.02975  -0.02958   1.59751
   A22        2.08205  -0.00011   0.00000   0.01142   0.01102   2.09307
   A23        2.08445   0.00004   0.00000   0.01063   0.01012   2.09457
   A24        2.00248   0.00003   0.00000   0.00753   0.00648   2.00895
   A25        1.90561   0.00036   0.00000  -0.00089  -0.00092   1.90469
   A26        1.61631  -0.00014   0.00000  -0.02966  -0.02950   1.58681
   A27        1.62713  -0.00015   0.00000  -0.02969  -0.02953   1.59760
   A28        2.08204  -0.00011   0.00000   0.01141   0.01101   2.09305
   A29        2.08443   0.00004   0.00000   0.01060   0.01009   2.09453
   A30        2.00250   0.00003   0.00000   0.00752   0.00646   2.00896
    D1       -1.00387   0.00022   0.00000  -0.00619  -0.00621  -1.01008
    D2        1.89816   0.00010   0.00000  -0.00933  -0.00931   1.88885
    D3        0.63714   0.00009   0.00000  -0.05286  -0.05303   0.58411
    D4       -2.74402  -0.00003   0.00000  -0.05600  -0.05613  -2.80015
    D5       -3.01866   0.00015   0.00000   0.00278   0.00282  -3.01583
    D6       -0.11663   0.00003   0.00000  -0.00036  -0.00028  -0.11691
    D7        0.86329   0.00015   0.00000   0.00072   0.00074   0.86403
    D8        2.99789   0.00006   0.00000  -0.00011  -0.00020   2.99769
    D9       -1.27875   0.00007   0.00000   0.00270   0.00292  -1.27583
   D10       -1.23397   0.00009   0.00000  -0.00048  -0.00060  -1.23457
   D11        0.90064   0.00000   0.00000  -0.00132  -0.00154   0.89910
   D12        2.90718   0.00001   0.00000   0.00149   0.00159   2.90876
   D13        3.05736   0.00010   0.00000   0.00249   0.00238   3.05974
   D14       -1.09122   0.00001   0.00000   0.00166   0.00144  -1.08978
   D15        0.91532   0.00002   0.00000   0.00447   0.00456   0.91988
   D16        0.00003   0.00000   0.00000  -0.00001  -0.00001   0.00002
   D17        2.90308  -0.00012   0.00000  -0.00248  -0.00244   2.90064
   D18       -2.90302   0.00012   0.00000   0.00248   0.00244  -2.90057
   D19        0.00004   0.00000   0.00000   0.00001   0.00001   0.00004
   D20        1.00380  -0.00022   0.00000   0.00615   0.00617   1.00997
   D21       -0.63714  -0.00009   0.00000   0.05288   0.05306  -0.58409
   D22        3.01870  -0.00015   0.00000  -0.00279  -0.00283   3.01587
   D23       -1.89824  -0.00010   0.00000   0.00927   0.00926  -1.88898
   D24        2.74400   0.00003   0.00000   0.05600   0.05614   2.80015
   D25        0.11666  -0.00003   0.00000   0.00034   0.00026   0.11692
   D26       -0.86315  -0.00015   0.00000  -0.00061  -0.00063  -0.86378
   D27       -2.99777  -0.00006   0.00000   0.00021   0.00031  -2.99746
   D28        1.27890  -0.00007   0.00000  -0.00261  -0.00283   1.27607
   D29        1.23409  -0.00009   0.00000   0.00060   0.00071   1.23480
   D30       -0.90052   0.00000   0.00000   0.00142   0.00165  -0.89888
   D31       -2.90704  -0.00001   0.00000  -0.00140  -0.00149  -2.90853
   D32       -3.05726  -0.00010   0.00000  -0.00240  -0.00228  -3.05954
   D33        1.09131  -0.00001   0.00000  -0.00157  -0.00135   1.08996
   D34       -0.91520  -0.00002   0.00000  -0.00439  -0.00449  -0.91969
   D35       -0.00007   0.00000   0.00000  -0.00006  -0.00006  -0.00012
   D36       -1.82396  -0.00001   0.00000   0.03195   0.03205  -1.79191
   D37        1.83864   0.00008   0.00000  -0.03257  -0.03271   1.80593
   D38        1.82384   0.00001   0.00000  -0.03208  -0.03218   1.79166
   D39       -0.00006   0.00000   0.00000  -0.00008  -0.00008  -0.00013
   D40       -2.62064   0.00009   0.00000  -0.06459  -0.06483  -2.68547
   D41       -1.83875  -0.00008   0.00000   0.03256   0.03270  -1.80605
   D42        2.62054  -0.00009   0.00000   0.06456   0.06480   2.68534
   D43       -0.00005   0.00000   0.00000   0.00005   0.00005   0.00000
         Item               Value     Threshold  Converged?
 Maximum Force            0.006901     0.000015     NO 
 RMS     Force            0.001040     0.000010     NO 
 Maximum Displacement     0.039478     0.000060     NO 
 RMS     Displacement     0.012281     0.000040     NO 
 Predicted change in Energy= 5.577453D-04
 GradGradGradGradGradGradGradGradGradGradGradGradGradGradGradGradGradGrad

                          Input orientation:                          
 ---------------------------------------------------------------------
 Center     Atomic      Atomic             Coordinates (Angstroms)
 Number     Number       Type             X           Y           Z
 ---------------------------------------------------------------------
      1          6           0       -0.692403    0.925892    0.051280
      2          6           0        0.042810   -0.175075   -0.351103
      3          6           0        1.448905   -0.177483   -0.335616
      4          6           0        2.178870    0.920952    0.082921
      5          6           0        1.413693    1.235243    2.191837
      6          6           0        0.027016    1.237493    2.176502
      7          1           0       -0.320681    1.929865   -0.118881
      8          1           0       -1.773905    0.855260    0.138374
      9          1           0       -0.467913   -1.129804   -0.468302
     10          1           0        1.958797   -1.133964   -0.441617
     11          1           0        1.814451    1.926201   -0.095301
     12          1           0        3.257944    0.846598    0.193770
     13          1           0        1.956286    2.173212    2.267609
     14          1           0        1.950621    0.363201    2.547714
     15          1           0       -0.514054    2.177221    2.240415
     16          1           0       -0.520436    0.367189    2.520400
 ---------------------------------------------------------------------
                    Distance matrix (angstroms):
                    1          2          3          4          5
     1  C    0.000000
     2  C    1.383682   0.000000
     3  C    2.439739   1.406183   0.000000
     4  C    2.871452   2.439755   1.383684   0.000000
     5  C    3.018828   3.214787   2.895695   2.265347   0.000000
     6  C    2.265221   2.895579   3.214757   3.018899   1.386764
     7  H    1.084018   2.148680   2.760313   2.703032   2.971526
     8  H    1.087300   2.145141   3.417270   3.953710   3.810758
     9  H    2.132193   1.089074   2.144461   3.393363   4.026193
    10  H    3.393348   2.144451   1.089073   2.132194   3.584042
    11  H    2.703039   2.760345   2.148688   1.084015   2.422607
    12  H    3.953712   3.417279   2.145137   1.087298   2.746739
    13  H    3.671985   4.004184   3.544006   2.527955   1.086247
    14  H    3.678910   3.511783   2.976180   2.537397   1.084157
    15  H    2.527834   3.543918   4.004220   3.672170   2.146134
    16  H    2.537376   2.976041   3.511666   3.678887   2.145304
                    6          7          8          9         10
     6  C    0.000000
     7  H    2.422613   0.000000
     8  H    2.746521   1.825601   0.000000
     9  H    3.583858   3.083075   2.452377   0.000000
    10  H    4.026180   3.832392   4.269247   2.426860   0.000000
    11  H    2.971587   2.135265   3.752041   3.832425   3.083079
    12  H    3.810895   3.752036   5.032162   4.269253   2.452372
    13  H    2.146148   3.307435   4.492767   4.926648   4.275198
    14  H    2.145330   3.837183   4.463085   4.144240   3.343302
    15  H    1.086246   2.380096   2.784489   4.275008   4.926686
    16  H    1.084158   3.073705   2.735588   3.343066   4.144104
                   11         12         13         14         15
    11  H    0.000000
    12  H    1.825589   0.000000
    13  H    2.380015   2.784785   0.000000
    14  H    3.073603   2.735657   1.831564   0.000000
    15  H    3.307645   4.493026   2.470493   3.075666   0.000000
    16  H    3.837200   4.463093   3.075674   2.471211   1.831569
                   16
    16  H    0.000000
 Symmetry turned off by external request.
 Stoichiometry    C6H10
 Framework group  C1[X(C6H10)]
 Deg. of freedom    42
 Full point group                 C1      NOp   1
 Rotational constants (GHZ):           4.3454785           3.4682798           2.2609975
 Standard basis: 6-31G(d) (6D, 7F)
   110 basis functions,   208 primitive gaussians,   110 cartesian basis functions
    23 alpha electrons       23 beta electrons
       nuclear repulsion energy       224.1292254149 Hartrees.
 NAtoms=   16 NActive=   16 NUniq=   16 SFac= 1.00D+00 NAtFMM=   60 NAOKFM=F Big=F
 Integral buffers will be    131072 words long.
 Raffenetti 2 integral format.
 Two-electron integral symmetry is turned off.
 One-electron integrals computed using PRISM.
 NBasis=   110 RedAO= T EigKep=  2.28D-03  NBF=   110
 NBsUse=   110 1.00D-06 EigRej= -1.00D+00 NBFU=   110
 Initial guess from the checkpoint file:  "C:\Users\al6323\OneDrive - Imperial College London\Desktop\TSR202511112\TS_guess_opt_TS(Berny).chk"
 B after Tr=     0.000004    0.002407    0.000059
         Rot=    1.000000   -0.000282    0.000001   -0.000002 Ang=  -0.03 deg.
 ExpMin= 1.61D-01 ExpMax= 3.05D+03 ExpMxC= 4.57D+02 IAcc=3 IRadAn=         5 AccDes= 0.00D+00
 Harris functional with IExCor=  402 and IRadAn=       5 diagonalized for initial guess.
 HarFok:  IExCor=  402 AccDes= 0.00D+00 IRadAn=         5 IDoV= 1 UseB2=F ITyADJ=14
 ICtDFT=  3500011 ScaDFX=  1.000000  1.000000  1.000000  1.000000
 FoFCou: FMM=F IPFlag=           0 FMFlag=      100000 FMFlg1=           0
         NFxFlg=           0 DoJE=T BraDBF=F KetDBF=T FulRan=T
         wScrn=  0.000000 ICntrl=       500 IOpCl=  0 I1Cent=   200000004 NGrid=           0
         NMat0=    1 NMatS0=      1 NMatT0=    0 NMatD0=    1 NMtDS0=    0 NMtDT0=    0
 Symmetry not used in FoFCou.
 Requested convergence on RMS density matrix=1.00D-08 within 128 cycles.
 Requested convergence on MAX density matrix=1.00D-06.
 Requested convergence on             energy=1.00D-06.
 No special actions if energy rises.
 Integral accuracy reduced to 1.0D-05 until final iterations.
 Initial convergence to 1.0D-05 achieved.  Increase integral accuracy.
 SCF Done:  E(RB3LYP) =  -234.543891891     A.U. after   12 cycles
            NFock= 12  Conv=0.76D-08     -V/T= 2.0103
 Calling FoFJK, ICntrl=      2127 FMM=F ISym2X=0 I1Cent= 0 IOpClX= 0 NMat=1 NMatS=1 NMatT=0.
 -------------------------------------------------------------------
 Center     Atomic                   Forces (Hartrees/Bohr)
 Number     Number              X              Y              Z
 -------------------------------------------------------------------
      1        6          -0.000033659    0.000394586    0.000743188
      2        6           0.000194027   -0.000358334   -0.000015167
      3        6          -0.000193848   -0.000358209   -0.000018399
      4        6           0.000019988    0.000394520    0.000744748
      5        6           0.000837962   -0.000081051   -0.000640892
      6        6          -0.000825618   -0.000078302   -0.000660051
      7        1          -0.000017967    0.000035342   -0.000086885
      8        1          -0.000017664   -0.000007910   -0.000015965
      9        1          -0.000004085    0.000009957   -0.000098413
     10        1           0.000007703    0.000009617   -0.000096493
     11        1           0.000021225    0.000034455   -0.000083891
     12        1           0.000018992   -0.000008763   -0.000011812
     13        1           0.000000765    0.000048936    0.000065843
     14        1           0.000004591   -0.000042225    0.000056125
     15        1          -0.000003969    0.000049152    0.000063945
     16        1          -0.000008442   -0.000041771    0.000054120
 -------------------------------------------------------------------
 Cartesian Forces:  Max     0.000837962 RMS     0.000290707

 GradGradGradGradGradGradGradGradGradGradGradGradGradGradGradGradGradGrad
 Berny optimization.
 FormGI is forming the generalized inverse of G from B-inverse, IUseBI=4.
 Internal  Forces:  Max     0.000678527 RMS     0.000130701
 Search for a saddle point.
 Step number   2 out of a maximum of  100
 All quantities printed in internal units (Hartrees-Bohrs-Radians)
 Swapping is turned off.
 Update second derivatives using D2CorX and points    1    2
 ITU=  0  0
     Eigenvalues ---   -0.03861   0.00156   0.00551   0.01093   0.01527
     Eigenvalues ---    0.01689   0.01879   0.02315   0.02708   0.02713
     Eigenvalues ---    0.02989   0.03086   0.03668   0.04580   0.04980
     Eigenvalues ---    0.05013   0.05320   0.05480   0.05639   0.05789
     Eigenvalues ---    0.06167   0.06704   0.07641   0.10150   0.12114
     Eigenvalues ---    0.12633   0.14696   0.16972   0.35306   0.35375
     Eigenvalues ---    0.35801   0.35829   0.35857   0.35905   0.36035
     Eigenvalues ---    0.36429   0.36497   0.36569   0.37344   0.43882
     Eigenvalues ---    0.44131   0.49947
 Eigenvectors required to have negative eigenvalues:
                          R2        R9        D42       D40       D3
   1                   -0.58663  -0.58584  -0.18264   0.18262   0.17050
                          D21       D24       D4        R12       A4
   1                   -0.17045  -0.14748   0.14748   0.11696   0.11490
 RFO step:  Lambda0=2.039153965D-05 Lambda=-3.69771844D-06.
 Linear search not attempted -- option 19 set.
 Iteration  1 RMS(Cart)=  0.00173141 RMS(Int)=  0.00000376
 Iteration  2 RMS(Cart)=  0.00000315 RMS(Int)=  0.00000226
 Iteration  3 RMS(Cart)=  0.00000000 RMS(Int)=  0.00000226
 Variable       Old X    -DE/DX   Delta X   Delta X   Delta X     New X
                                 (Linear)    (Quad)   (Total)
    R1        2.61478   0.00043   0.00000  -0.00104  -0.00104   2.61374
    R2        4.28065  -0.00056   0.00000   0.01180   0.01180   4.29245
    R3        2.04850   0.00004   0.00000  -0.00007  -0.00007   2.04843
    R4        2.05470   0.00002   0.00000   0.00000   0.00000   2.05470
    R5        2.65730   0.00004   0.00000   0.00180   0.00180   2.65910
    R6        2.05805   0.00000   0.00000   0.00001   0.00001   2.05806
    R7        2.61478   0.00043   0.00000  -0.00104  -0.00104   2.61375
    R8        2.05805   0.00000   0.00000   0.00001   0.00001   2.05806
    R9        4.28089  -0.00056   0.00000   0.01175   0.01175   4.29264
   R10        2.04849   0.00004   0.00000  -0.00007  -0.00007   2.04842
   R11        2.05470   0.00002   0.00000   0.00000   0.00000   2.05470
   R12        2.62060   0.00068   0.00000  -0.00120  -0.00120   2.61940
   R13        2.05271   0.00005   0.00000   0.00005   0.00005   2.05276
   R14        2.04876   0.00005   0.00000   0.00004   0.00004   2.04880
   R15        2.05271   0.00005   0.00000   0.00005   0.00005   2.05276
   R16        2.04876   0.00005   0.00000   0.00004   0.00004   2.04880
    A1        1.78599  -0.00002   0.00000  -0.00113  -0.00113   1.78486
    A2        2.10490  -0.00001   0.00000   0.00087   0.00086   2.10577
    A3        2.09453  -0.00001   0.00000   0.00041   0.00041   2.09494
    A4        1.48164   0.00004   0.00000  -0.00373  -0.00373   1.47792
    A5        1.82315   0.00004   0.00000   0.00012   0.00012   1.82327
    A6        1.99744  -0.00001   0.00000   0.00078   0.00078   1.99822
    A7        2.12877   0.00000   0.00000   0.00100   0.00099   2.12977
    A8        2.07105   0.00002   0.00000   0.00000   0.00000   2.07105
    A9        2.05851  -0.00001   0.00000  -0.00045  -0.00045   2.05805
   A10        2.12880   0.00000   0.00000   0.00099   0.00099   2.12979
   A11        2.05849  -0.00001   0.00000  -0.00045  -0.00045   2.05804
   A12        2.07105   0.00002   0.00000   0.00000   0.00000   2.07105
   A13        1.78599  -0.00002   0.00000  -0.00112  -0.00111   1.78488
   A14        2.10492  -0.00001   0.00000   0.00087   0.00086   2.10578
   A15        2.09452  -0.00001   0.00000   0.00041   0.00040   2.09493
   A16        1.48152   0.00004   0.00000  -0.00374  -0.00374   1.47779
   A17        1.82327   0.00004   0.00000   0.00011   0.00011   1.82338
   A18        1.99743  -0.00001   0.00000   0.00079   0.00078   1.99821
   A19        1.90465   0.00002   0.00000  -0.00017  -0.00017   1.90447
   A20        1.58681   0.00003   0.00000  -0.00224  -0.00224   1.58457
   A21        1.59751   0.00001   0.00000  -0.00320  -0.00320   1.59431
   A22        2.09307  -0.00002   0.00000   0.00084   0.00083   2.09390
   A23        2.09457  -0.00002   0.00000   0.00069   0.00068   2.09525
   A24        2.00895   0.00001   0.00000   0.00092   0.00092   2.00987
   A25        1.90469   0.00002   0.00000  -0.00018  -0.00018   1.90452
   A26        1.58681   0.00003   0.00000  -0.00225  -0.00225   1.58456
   A27        1.59760   0.00001   0.00000  -0.00321  -0.00321   1.59440
   A28        2.09305  -0.00002   0.00000   0.00084   0.00084   2.09389
   A29        2.09453  -0.00002   0.00000   0.00069   0.00068   2.09521
   A30        2.00896   0.00001   0.00000   0.00093   0.00092   2.00988
    D1       -1.01008   0.00001   0.00000  -0.00057  -0.00057  -1.01065
    D2        1.88885   0.00005   0.00000   0.00199   0.00199   1.89084
    D3        0.58411   0.00004   0.00000  -0.00546  -0.00546   0.57865
    D4       -2.80015   0.00008   0.00000  -0.00290  -0.00290  -2.80305
    D5       -3.01583  -0.00001   0.00000  -0.00009  -0.00009  -3.01592
    D6       -0.11691   0.00002   0.00000   0.00247   0.00247  -0.11444
    D7        0.86403   0.00000   0.00000  -0.00038  -0.00038   0.86365
    D8        2.99769  -0.00001   0.00000  -0.00045  -0.00045   2.99724
    D9       -1.27583   0.00001   0.00000   0.00029   0.00030  -1.27553
   D10       -1.23457   0.00000   0.00000  -0.00049  -0.00050  -1.23506
   D11        0.89910   0.00000   0.00000  -0.00057  -0.00057   0.89853
   D12        2.90876   0.00001   0.00000   0.00018   0.00018   2.90894
   D13        3.05974   0.00000   0.00000  -0.00040  -0.00040   3.05934
   D14       -1.08978  -0.00001   0.00000  -0.00048  -0.00048  -1.09026
   D15        0.91988   0.00001   0.00000   0.00027   0.00027   0.92015
   D16        0.00002   0.00000   0.00000   0.00001   0.00001   0.00003
   D17        2.90064   0.00004   0.00000   0.00260   0.00260   2.90324
   D18       -2.90057  -0.00004   0.00000  -0.00259  -0.00259  -2.90316
   D19        0.00004   0.00000   0.00000   0.00000   0.00000   0.00005
   D20        1.00997  -0.00001   0.00000   0.00057   0.00057   1.01054
   D21       -0.58409  -0.00004   0.00000   0.00546   0.00546  -0.57862
   D22        3.01587   0.00001   0.00000   0.00010   0.00010   3.01597
   D23       -1.88898  -0.00005   0.00000  -0.00198  -0.00198  -1.89097
   D24        2.80015  -0.00007   0.00000   0.00291   0.00291   2.80306
   D25        0.11692  -0.00002   0.00000  -0.00246  -0.00246   0.11446
   D26       -0.86378   0.00000   0.00000   0.00038   0.00038  -0.86340
   D27       -2.99746   0.00001   0.00000   0.00045   0.00045  -2.99701
   D28        1.27607  -0.00001   0.00000  -0.00029  -0.00029   1.27578
   D29        1.23480   0.00000   0.00000   0.00049   0.00049   1.23530
   D30       -0.89888   0.00000   0.00000   0.00057   0.00057  -0.89831
   D31       -2.90853  -0.00001   0.00000  -0.00018  -0.00018  -2.90871
   D32       -3.05954   0.00000   0.00000   0.00040   0.00040  -3.05914
   D33        1.08996   0.00001   0.00000   0.00047   0.00048   1.09044
   D34       -0.91969  -0.00001   0.00000  -0.00027  -0.00027  -0.91996
   D35       -0.00012   0.00000   0.00000   0.00000   0.00000  -0.00012
   D36       -1.79191  -0.00004   0.00000   0.00253   0.00253  -1.78939
   D37        1.80593   0.00002   0.00000  -0.00381  -0.00381   1.80212
   D38        1.79166   0.00004   0.00000  -0.00252  -0.00252   1.78914
   D39       -0.00013   0.00000   0.00000   0.00001   0.00001  -0.00013
   D40       -2.68547   0.00006   0.00000  -0.00633  -0.00633  -2.69180
   D41       -1.80605  -0.00002   0.00000   0.00380   0.00380  -1.80225
   D42        2.68534  -0.00006   0.00000   0.00633   0.00633   2.69167
   D43        0.00000   0.00000   0.00000  -0.00001  -0.00001  -0.00001
         Item               Value     Threshold  Converged?
 Maximum Force            0.000679     0.000015     NO 
 RMS     Force            0.000131     0.000010     NO 
 Maximum Displacement     0.006751     0.000060     NO 
 RMS     Displacement     0.001732     0.000040     NO 
 Predicted change in Energy= 8.352373D-06
 GradGradGradGradGradGradGradGradGradGradGradGradGradGradGradGradGradGrad

                          Input orientation:                          
 ---------------------------------------------------------------------
 Center     Atomic      Atomic             Coordinates (Angstroms)
 Number     Number       Type             X           Y           Z
 ---------------------------------------------------------------------
      1          6           0       -0.693733    0.925199    0.049026
      2          6           0        0.042333   -0.175256   -0.351295
      3          6           0        1.449382   -0.177667   -0.335795
      4          6           0        2.180239    0.920253    0.080713
      5          6           0        1.413344    1.236481    2.195398
      6          6           0        0.027302    1.238730    2.180074
      7          1           0       -0.321331    1.929481   -0.117569
      8          1           0       -1.775225    0.854153    0.135899
      9          1           0       -0.467942   -1.130094   -0.469584
     10          1           0        1.958852   -1.134253   -0.442897
     11          1           0        1.815057    1.925811   -0.093949
     12          1           0        3.259308    0.845489    0.191336
     13          1           0        1.956768    2.174226    2.268314
     14          1           0        1.950955    0.363611    2.548271
     15          1           0       -0.514539    2.178237    2.241110
     16          1           0       -0.520769    0.367600    2.520949
 ---------------------------------------------------------------------
                    Distance matrix (angstroms):
                    1          2          3          4          5
     1  C    0.000000
     2  C    1.383131   0.000000
     3  C    2.440766   1.407136   0.000000
     4  C    2.874150   2.440781   1.383134   0.000000
     5  C    3.023835   3.218434   2.899664   2.271568   0.000000
     6  C    2.271466   2.899554   3.218399   3.023885   1.386128
     7  H    1.083983   2.148673   2.761000   2.704757   2.973073
     8  H    1.087300   2.144892   3.418368   3.956401   3.815060
     9  H    2.131705   1.089077   2.145029   3.394056   4.030142
    10  H    3.394044   2.145020   1.089076   2.131707   3.588670
    11  H    2.704754   2.761025   2.148681   1.083979   2.424388
    12  H    3.956405   3.418376   2.144889   1.087298   2.752584
    13  H    3.675658   4.005931   3.545452   2.531400   1.086275
    14  H    3.681844   3.512933   2.976978   2.539935   1.084179
    15  H    2.531294   3.545364   4.005959   3.675822   2.146096
    16  H    2.539928   2.976837   3.512805   3.681796   2.145165
                    6          7          8          9         10
     6  C    0.000000
     7  H    2.424427   0.000000
     8  H    2.752391   1.826029   0.000000
     9  H    3.588493   3.083246   2.452109   0.000000
    10  H    4.030126   3.832954   4.269906   2.426944   0.000000
    11  H    2.973101   2.136522   3.753853   3.832981   3.083250
    12  H    3.815177   3.753856   5.034846   4.269911   2.452105
    13  H    2.146107   3.307881   4.496394   4.928878   4.277465
    14  H    2.145190   3.836917   4.465936   4.146043   3.345258
    15  H    1.086273   2.379617   2.788268   4.277276   4.928909
    16  H    1.084180   3.072625   2.738403   3.345021   4.145897
                   11         12         13         14         15
    11  H    0.000000
    12  H    1.826018   0.000000
    13  H    2.379513   2.788546   0.000000
    14  H    3.072502   2.738456   1.832140   0.000000
    15  H    3.308057   4.496633   2.471460   3.076666   0.000000
    16  H    3.836900   4.465922   3.076673   2.471878   1.832145
                   16
    16  H    0.000000
 Symmetry turned off by external request.
 Stoichiometry    C6H10
 Framework group  C1[X(C6H10)]
 Deg. of freedom    42
 Full point group                 C1      NOp   1
 Rotational constants (GHZ):           4.3407054           3.4591111           2.2559851
 Standard basis: 6-31G(d) (6D, 7F)
   110 basis functions,   208 primitive gaussians,   110 cartesian basis functions
    23 alpha electrons       23 beta electrons
       nuclear repulsion energy       223.9945043911 Hartrees.
 NAtoms=   16 NActive=   16 NUniq=   16 SFac= 1.00D+00 NAtFMM=   60 NAOKFM=F Big=F
 Integral buffers will be    131072 words long.
 Raffenetti 2 integral format.
 Two-electron integral symmetry is turned off.
 One-electron integrals computed using PRISM.
 NBasis=   110 RedAO= T EigKep=  2.28D-03  NBF=   110
 NBsUse=   110 1.00D-06 EigRej= -1.00D+00 NBFU=   110
 Initial guess from the checkpoint file:  "C:\Users\al6323\OneDrive - Imperial College London\Desktop\TSR202511112\TS_guess_opt_TS(Berny).chk"
 B after Tr=    -0.000007    0.000018    0.000607
         Rot=    1.000000    0.000051    0.000000    0.000001 Ang=   0.01 deg.
 Requested convergence on RMS density matrix=1.00D-08 within 128 cycles.
 Requested convergence on MAX density matrix=1.00D-06.
 Requested convergence on             energy=1.00D-06.
 No special actions if energy rises.
 SCF Done:  E(RB3LYP) =  -234.543882807     A.U. after    9 cycles
            NFock=  9  Conv=0.30D-08     -V/T= 2.0103
 Calling FoFJK, ICntrl=      2127 FMM=F ISym2X=0 I1Cent= 0 IOpClX= 0 NMat=1 NMatS=1 NMatT=0.
 -------------------------------------------------------------------
 Center     Atomic                   Forces (Hartrees/Bohr)
 Number     Number              X              Y              Z
 -------------------------------------------------------------------
      1        6          -0.000004947    0.000030084    0.000070715
      2        6           0.000021695   -0.000030465    0.000000173
      3        6          -0.000020375   -0.000030438    0.000000681
      4        6           0.000004575    0.000029590    0.000072266
      5        6           0.000065236   -0.000007687   -0.000065416
      6        6          -0.000065670   -0.000007345   -0.000068026
      7        1           0.000001327    0.000007555   -0.000003177
      8        1          -0.000002066   -0.000000260   -0.000009845
      9        1           0.000001558    0.000001169   -0.000010015
     10        1          -0.000000043    0.000000858   -0.000008318
     11        1           0.000000242    0.000007161   -0.000001498
     12        1           0.000003152   -0.000000932   -0.000006096
     13        1          -0.000001989    0.000006369    0.000010376
     14        1           0.000000618   -0.000006331    0.000005713
     15        1           0.000000037    0.000006720    0.000008572
     16        1          -0.000003350   -0.000006049    0.000003893
 -------------------------------------------------------------------
 Cartesian Forces:  Max     0.000072266 RMS     0.000026312

 GradGradGradGradGradGradGradGradGradGradGradGradGradGradGradGradGradGrad
 Berny optimization.
 FormGI is forming the generalized inverse of G from B-inverse, IUseBI=4.
 Internal  Forces:  Max     0.000054995 RMS     0.000011913
 Search for a saddle point.
 Step number   3 out of a maximum of  100
 All quantities printed in internal units (Hartrees-Bohrs-Radians)
 Swapping is turned off.
 Update second derivatives using D2CorX and points    1    2    3
 ITU=  0  0  0
     Eigenvalues ---   -0.03447   0.00156   0.00551   0.01092   0.01527
     Eigenvalues ---    0.01678   0.01879   0.02315   0.02708   0.02713
     Eigenvalues ---    0.02989   0.03082   0.03670   0.04580   0.04980
     Eigenvalues ---    0.04996   0.05314   0.05480   0.05639   0.05789
     Eigenvalues ---    0.06164   0.06701   0.07641   0.10148   0.12114
     Eigenvalues ---    0.12633   0.14695   0.16971   0.35306   0.35375
     Eigenvalues ---    0.35803   0.35829   0.35857   0.35905   0.36035
     Eigenvalues ---    0.36429   0.36497   0.36569   0.37368   0.43882
     Eigenvalues ---    0.44131   0.49978
 Eigenvectors required to have negative eigenvalues:
                          R2        R9        D42       D40       D21
   1                   -0.58192  -0.58133  -0.18565   0.18563  -0.17669
                          D3        D24       D4        A16       A4
   1                    0.17666  -0.15031   0.15023   0.11912   0.11903
 RFO step:  Lambda0=1.910046581D-07 Lambda=-4.61940366D-08.
 Linear search not attempted -- option 19 set.
 Iteration  1 RMS(Cart)=  0.00020010 RMS(Int)=  0.00000005
 Iteration  2 RMS(Cart)=  0.00000004 RMS(Int)=  0.00000002
 Variable       Old X    -DE/DX   Delta X   Delta X   Delta X     New X
                                 (Linear)    (Quad)   (Total)
    R1        2.61374   0.00004   0.00000  -0.00011  -0.00011   2.61363
    R2        4.29245  -0.00005   0.00000   0.00114   0.00114   4.29359
    R3        2.04843   0.00001   0.00000   0.00000   0.00000   2.04843
    R4        2.05470   0.00000   0.00000   0.00000   0.00000   2.05470
    R5        2.65910   0.00000   0.00000   0.00017   0.00017   2.65927
    R6        2.05806   0.00000   0.00000   0.00000   0.00000   2.05806
    R7        2.61375   0.00004   0.00000  -0.00011  -0.00011   2.61363
    R8        2.05806   0.00000   0.00000   0.00000   0.00000   2.05806
    R9        4.29264  -0.00005   0.00000   0.00118   0.00118   4.29382
   R10        2.04842   0.00001   0.00000   0.00000   0.00000   2.04842
   R11        2.05470   0.00000   0.00000   0.00000   0.00000   2.05470
   R12        2.61940   0.00005   0.00000  -0.00014  -0.00014   2.61926
   R13        2.05276   0.00001   0.00000   0.00001   0.00001   2.05278
   R14        2.04880   0.00001   0.00000   0.00001   0.00001   2.04881
   R15        2.05276   0.00001   0.00000   0.00001   0.00001   2.05277
   R16        2.04880   0.00001   0.00000   0.00001   0.00001   2.04881
    A1        1.78486   0.00000   0.00000  -0.00014  -0.00014   1.78472
    A2        2.10577   0.00000   0.00000   0.00009   0.00009   2.10586
    A3        2.09494   0.00000   0.00000   0.00003   0.00003   2.09497
    A4        1.47792   0.00000   0.00000  -0.00046  -0.00046   1.47745
    A5        1.82327   0.00001   0.00000   0.00015   0.00015   1.82342
    A6        1.99822   0.00000   0.00000   0.00007   0.00007   1.99829
    A7        2.12977   0.00000   0.00000   0.00011   0.00011   2.12988
    A8        2.07105   0.00000   0.00000   0.00001   0.00001   2.07106
    A9        2.05805   0.00000   0.00000  -0.00005  -0.00005   2.05800
   A10        2.12979   0.00000   0.00000   0.00011   0.00011   2.12990
   A11        2.05804   0.00000   0.00000  -0.00005  -0.00005   2.05799
   A12        2.07105   0.00000   0.00000   0.00001   0.00001   2.07106
   A13        1.78488   0.00000   0.00000  -0.00014  -0.00014   1.78473
   A14        2.10578   0.00000   0.00000   0.00009   0.00009   2.10587
   A15        2.09493   0.00000   0.00000   0.00003   0.00003   2.09496
   A16        1.47779   0.00000   0.00000  -0.00047  -0.00047   1.47732
   A17        1.82338   0.00001   0.00000   0.00015   0.00015   1.82354
   A18        1.99821   0.00000   0.00000   0.00007   0.00007   1.99829
   A19        1.90447   0.00000   0.00000  -0.00001  -0.00001   1.90446
   A20        1.58457   0.00000   0.00000  -0.00015  -0.00015   1.58442
   A21        1.59431   0.00000   0.00000  -0.00035  -0.00035   1.59395
   A22        2.09390   0.00000   0.00000   0.00005   0.00005   2.09395
   A23        2.09525   0.00000   0.00000   0.00008   0.00008   2.09534
   A24        2.00987   0.00000   0.00000   0.00009   0.00009   2.00996
   A25        1.90452   0.00000   0.00000  -0.00001  -0.00001   1.90451
   A26        1.58456   0.00000   0.00000  -0.00015  -0.00015   1.58441
   A27        1.59440   0.00000   0.00000  -0.00035  -0.00035   1.59405
   A28        2.09389   0.00000   0.00000   0.00005   0.00005   2.09393
   A29        2.09521   0.00000   0.00000   0.00008   0.00008   2.09529
   A30        2.00988   0.00000   0.00000   0.00009   0.00009   2.00997
    D1       -1.01065   0.00000   0.00000  -0.00007  -0.00007  -1.01072
    D2        1.89084   0.00001   0.00000   0.00023   0.00023   1.89107
    D3        0.57865   0.00000   0.00000  -0.00068  -0.00068   0.57797
    D4       -2.80305   0.00000   0.00000  -0.00038  -0.00038  -2.80343
    D5       -3.01592  -0.00001   0.00000  -0.00018  -0.00018  -3.01610
    D6       -0.11444   0.00000   0.00000   0.00012   0.00012  -0.11431
    D7        0.86365   0.00000   0.00000  -0.00003  -0.00003   0.86362
    D8        2.99724   0.00000   0.00000  -0.00004  -0.00004   2.99719
    D9       -1.27553   0.00000   0.00000   0.00003   0.00003  -1.27550
   D10       -1.23506   0.00000   0.00000  -0.00003  -0.00003  -1.23509
   D11        0.89853   0.00000   0.00000  -0.00004  -0.00004   0.89848
   D12        2.90894   0.00000   0.00000   0.00003   0.00003   2.90897
   D13        3.05934   0.00000   0.00000   0.00001   0.00001   3.05934
   D14       -1.09026   0.00000   0.00000  -0.00001  -0.00001  -1.09027
   D15        0.92015   0.00000   0.00000   0.00007   0.00007   0.92022
   D16        0.00003   0.00000   0.00000   0.00000   0.00000   0.00003
   D17        2.90324   0.00001   0.00000   0.00031   0.00031   2.90355
   D18       -2.90316  -0.00001   0.00000  -0.00031  -0.00031  -2.90347
   D19        0.00005   0.00000   0.00000   0.00000   0.00000   0.00005
   D20        1.01054   0.00000   0.00000   0.00007   0.00007   1.01060
   D21       -0.57862   0.00000   0.00000   0.00069   0.00069  -0.57793
   D22        3.01597   0.00001   0.00000   0.00017   0.00017   3.01614
   D23       -1.89097  -0.00001   0.00000  -0.00024  -0.00024  -1.89120
   D24        2.80306   0.00000   0.00000   0.00039   0.00039   2.80345
   D25        0.11446   0.00000   0.00000  -0.00013  -0.00013   0.11433
   D26       -0.86340   0.00000   0.00000   0.00004   0.00004  -0.86337
   D27       -2.99701   0.00000   0.00000   0.00005   0.00005  -2.99696
   D28        1.27578   0.00000   0.00000  -0.00003  -0.00003   1.27575
   D29        1.23530   0.00000   0.00000   0.00004   0.00004   1.23533
   D30       -0.89831   0.00000   0.00000   0.00005   0.00005  -0.89826
   D31       -2.90871   0.00000   0.00000  -0.00003  -0.00003  -2.90874
   D32       -3.05914   0.00000   0.00000   0.00000   0.00000  -3.05914
   D33        1.09044   0.00000   0.00000   0.00001   0.00001   1.09045
   D34       -0.91996   0.00000   0.00000  -0.00006  -0.00006  -0.92003
   D35       -0.00012   0.00000   0.00000   0.00000   0.00000  -0.00013
   D36       -1.78939  -0.00001   0.00000   0.00017   0.00017  -1.78922
   D37        1.80212   0.00000   0.00000  -0.00041  -0.00041   1.80171
   D38        1.78914   0.00001   0.00000  -0.00018  -0.00018   1.78896
   D39       -0.00013   0.00000   0.00000  -0.00001  -0.00001  -0.00013
   D40       -2.69180   0.00001   0.00000  -0.00058  -0.00058  -2.69238
   D41       -1.80225   0.00000   0.00000   0.00041   0.00041  -1.80184
   D42        2.69167  -0.00001   0.00000   0.00058   0.00058   2.69225
   D43       -0.00001   0.00000   0.00000   0.00001   0.00001   0.00000
         Item               Value     Threshold  Converged?
 Maximum Force            0.000055     0.000015     NO 
 RMS     Force            0.000012     0.000010     NO 
 Maximum Displacement     0.000756     0.000060     NO 
 RMS     Displacement     0.000200     0.000040     NO 
 Predicted change in Energy= 7.240580D-08
 GradGradGradGradGradGradGradGradGradGradGradGradGradGradGradGradGradGrad

                          Input orientation:                          
 ---------------------------------------------------------------------
 Center     Atomic      Atomic             Coordinates (Angstroms)
 Number     Number       Type             X           Y           Z
 ---------------------------------------------------------------------
      1          6           0       -0.693867    0.925122    0.048805
      2          6           0        0.042289   -0.175287   -0.351271
      3          6           0        1.449427   -0.177699   -0.335774
      4          6           0        2.180384    0.920173    0.080485
      5          6           0        1.413301    1.236610    2.195740
      6          6           0        0.027334    1.238856    2.180412
      7          1           0       -0.321352    1.929435   -0.117355
      8          1           0       -1.775374    0.854063    0.135505
      9          1           0       -0.467937   -1.130136   -0.469678
     10          1           0        1.958848   -1.134297   -0.442998
     11          1           0        1.815077    1.925763   -0.093733
     12          1           0        3.259470    0.845394    0.190936
     13          1           0        1.956776    2.174351    2.268440
     14          1           0        1.950996    0.363656    2.548291
     15          1           0       -0.514557    2.178357    2.241233
     16          1           0       -0.520813    0.367640    2.520963
 ---------------------------------------------------------------------
                    Distance matrix (angstroms):
                    1          2          3          4          5
     1  C    0.000000
     2  C    1.383072   0.000000
     3  C    2.440866   1.407225   0.000000
     4  C    2.874430   2.440880   1.383074   0.000000
     5  C    3.024321   3.218756   2.900024   2.272191   0.000000
     6  C    2.272072   2.899904   3.218722   3.024381   1.386054
     7  H    1.083984   2.148675   2.761047   2.704891   2.973119
     8  H    1.087301   2.144857   3.418476   3.956693   3.815568
     9  H    2.131656   1.089077   2.145076   3.394120   4.030508
    10  H    3.394109   2.145067   1.089076   2.131657   3.589117
    11  H    2.704885   2.761071   2.148682   1.083979   2.424468
    12  H    3.956695   3.418484   2.144854   1.087299   2.753295
    13  H    3.676039   4.006113   3.545627   2.531819   1.086282
    14  H    3.682116   3.512987   2.976989   2.540157   1.084184
    15  H    2.531697   3.545531   4.006144   3.676216   2.146065
    16  H    2.540138   2.976841   3.512860   3.682077   2.145152
                    6          7          8          9         10
     6  C    0.000000
     7  H    2.424503   0.000000
     8  H    2.753083   1.826073   0.000000
     9  H    3.588927   3.083277   2.452078   0.000000
    10  H    4.030495   3.832990   4.269971   2.426934   0.000000
    11  H    2.973148   2.136563   3.753989   3.833015   3.083281
    12  H    3.815696   3.753995   5.035157   4.269976   2.452074
    13  H    2.146077   3.307849   4.496834   4.929113   4.277739
    14  H    2.145178   3.836782   4.466304   4.146177   3.345405
    15  H    1.086280   2.379543   2.788818   4.277539   4.929148
    16  H    1.084185   3.072411   2.738785   3.345155   4.146034
                   11         12         13         14         15
    11  H    0.000000
    12  H    1.826063   0.000000
    13  H    2.379441   2.789115   0.000000
    14  H    3.072286   2.738850   1.832202   0.000000
    15  H    3.308031   4.497087   2.471486   3.076747   0.000000
    16  H    3.836765   4.466298   3.076754   2.471963   1.832207
                   16
    16  H    0.000000
 Symmetry turned off by external request.
 Stoichiometry    C6H10
 Framework group  C1[X(C6H10)]
 Deg. of freedom    42
 Full point group                 C1      NOp   1
 Rotational constants (GHZ):           4.3402289           3.4582535           2.2555106
 Standard basis: 6-31G(d) (6D, 7F)
   110 basis functions,   208 primitive gaussians,   110 cartesian basis functions
    23 alpha electrons       23 beta electrons
       nuclear repulsion energy       223.9819370362 Hartrees.
 NAtoms=   16 NActive=   16 NUniq=   16 SFac= 1.00D+00 NAtFMM=   60 NAOKFM=F Big=F
 Integral buffers will be    131072 words long.
 Raffenetti 2 integral format.
 Two-electron integral symmetry is turned off.
 One-electron integrals computed using PRISM.
 NBasis=   110 RedAO= T EigKep=  2.28D-03  NBF=   110
 NBsUse=   110 1.00D-06 EigRej= -1.00D+00 NBFU=   110
 Initial guess from the checkpoint file:  "C:\Users\al6323\OneDrive - Imperial College London\Desktop\TSR202511112\TS_guess_opt_TS(Berny).chk"
 B after Tr=    -0.000001   -0.000015    0.000081
         Rot=    1.000000    0.000009    0.000000    0.000000 Ang=   0.00 deg.
 Requested convergence on RMS density matrix=1.00D-08 within 128 cycles.
 Requested convergence on MAX density matrix=1.00D-06.
 Requested convergence on             energy=1.00D-06.
 No special actions if energy rises.
 SCF Done:  E(RB3LYP) =  -234.543882734     A.U. after    7 cycles
            NFock=  7  Conv=0.47D-08     -V/T= 2.0103
 Calling FoFJK, ICntrl=      2127 FMM=F ISym2X=0 I1Cent= 0 IOpClX= 0 NMat=1 NMatS=1 NMatT=0.
 -------------------------------------------------------------------
 Center     Atomic                   Forces (Hartrees/Bohr)
 Number     Number              X              Y              Z
 -------------------------------------------------------------------
      1        6           0.000000495    0.000000951    0.000000045
      2        6           0.000001410    0.000000051   -0.000000614
      3        6          -0.000000086   -0.000000230    0.000000355
      4        6           0.000000569    0.000000671    0.000002254
      5        6           0.000000172   -0.000000762   -0.000000556
      6        6          -0.000002009   -0.000000560   -0.000001410
      7        1           0.000000354    0.000000723    0.000000099
      8        1           0.000000438    0.000000538   -0.000002223
      9        1           0.000000666    0.000000875   -0.000002313
     10        1           0.000000641    0.000000566   -0.000000601
     11        1           0.000001191    0.000000480    0.000001655
     12        1           0.000000488   -0.000000102    0.000001319
     13        1          -0.000001025   -0.000000838    0.000002195
     14        1          -0.000001133   -0.000001075    0.000000561
     15        1          -0.000000738   -0.000000547    0.000000424
     16        1          -0.000001434   -0.000000740   -0.000001190
 -------------------------------------------------------------------
 Cartesian Forces:  Max     0.000002313 RMS     0.000001034

 GradGradGradGradGradGradGradGradGradGradGradGradGradGradGradGradGradGrad
 Berny optimization.
 FormGI is forming the generalized inverse of G from B-inverse, IUseBI=4.
 Internal  Forces:  Max     0.000001149 RMS     0.000000278
 Search for a saddle point.
 Step number   4 out of a maximum of  100
[...]
 Predicted change in Energy=-3.271770D-11
 Optimization completed.
    -- Stationary point found.
                           ----------------------------
                           !   Optimized Parameters   !
                           ! (Angstroms and Degrees)  !
 --------------------------                            --------------------------
 ! Name  Definition              Value          Derivative Info.                !
 --------------------------------------------------------------------------------
 ! R1    R(1,2)                  1.3831         -DE/DX =    0.0                 !
 ! R2    R(1,6)                  2.2721         -DE/DX =    0.0                 !
 ! R3    R(1,7)                  1.084          -DE/DX =    0.0                 !
 ! R4    R(1,8)                  1.0873         -DE/DX =    0.0                 !
 ! R5    R(2,3)                  1.4072         -DE/DX =    0.0                 !
 ! R6    R(2,9)                  1.0891         -DE/DX =    0.0                 !
 ! R7    R(3,4)                  1.3831         -DE/DX =    0.0                 !
 ! R8    R(3,10)                 1.0891         -DE/DX =    0.0                 !
 ! R9    R(4,5)                  2.2722         -DE/DX =    0.0                 !
 ! R10   R(4,11)                 1.084          -DE/DX =    0.0                 !
 ! R11   R(4,12)                 1.0873         -DE/DX =    0.0                 !
 ! R12   R(5,6)                  1.3861         -DE/DX =    0.0                 !
 ! R13   R(5,13)                 1.0863         -DE/DX =    0.0                 !
 ! R14   R(5,14)                 1.0842         -DE/DX =    0.0                 !
 ! R15   R(6,15)                 1.0863         -DE/DX =    0.0                 !
 ! R16   R(6,16)                 1.0842         -DE/DX =    0.0                 !
 ! A1    A(2,1,6)              102.2569         -DE/DX =    0.0                 !
 ! A2    A(2,1,7)              120.6569         -DE/DX =    0.0                 !
 ! A3    A(2,1,8)              120.0327         -DE/DX =    0.0                 !
 ! A4    A(6,1,7)               84.6519         -DE/DX =    0.0                 !
 ! A5    A(6,1,8)              104.4742         -DE/DX =    0.0                 !
 ! A6    A(7,1,8)              114.4938         -DE/DX =    0.0                 !
 ! A7    A(1,2,3)              122.033          -DE/DX =    0.0                 !
 ! A8    A(1,2,9)              118.6629         -DE/DX =    0.0                 !
 ! A9    A(3,2,9)              117.9149         -DE/DX =    0.0                 !
 ! A10   A(2,3,4)              122.034          -DE/DX =    0.0                 !
 ! A11   A(2,3,10)             117.9141         -DE/DX =    0.0                 !
 ! A12   A(4,3,10)             118.6629         -DE/DX =    0.0                 !
 ! A13   A(3,4,5)              102.2575         -DE/DX =    0.0                 !
 ! A14   A(3,4,11)             120.6577         -DE/DX =    0.0                 !
 ! A15   A(3,4,12)             120.0324         -DE/DX =    0.0                 !
 ! A16   A(5,4,11)              84.6439         -DE/DX =    0.0                 !
 ! A17   A(5,4,12)             104.4809         -DE/DX =    0.0                 !
 ! A18   A(11,4,12)            114.4934         -DE/DX =    0.0                 !
 ! A19   A(4,5,6)              109.1175         -DE/DX =    0.0                 !
 ! A20   A(4,5,13)              90.7805         -DE/DX =    0.0                 !
 ! A21   A(4,5,14)              91.3269         -DE/DX =    0.0                 !
 ! A22   A(6,5,13)             119.9746         -DE/DX =    0.0                 !
 ! A23   A(6,5,14)             120.0539         -DE/DX =    0.0                 !
 ! A24   A(13,5,14)            115.1623         -DE/DX =    0.0                 !
 ! A25   A(1,6,5)              109.1202         -DE/DX =    0.0                 !
 ! A26   A(1,6,15)              90.7797         -DE/DX =    0.0                 !
 ! A27   A(1,6,16)              91.3321         -DE/DX =    0.0                 !
 ! A28   A(5,6,15)             119.9736         -DE/DX =    0.0                 !
 ! A29   A(5,6,16)             120.0514         -DE/DX =    0.0                 !
 ! A30   A(15,6,16)            115.1628         -DE/DX =    0.0                 !
 ! D1    D(6,1,2,3)            -57.91           -DE/DX =    0.0                 !
 ! D2    D(6,1,2,9)            108.35           -DE/DX =    0.0                 !
 ! D3    D(7,1,2,3)             33.1152         -DE/DX =    0.0                 !
 ! D4    D(7,1,2,9)           -160.6247         -DE/DX =    0.0                 !
 ! D5    D(8,1,2,3)           -172.8098         -DE/DX =    0.0                 !
 ! D6    D(8,1,2,9)             -6.5497         -DE/DX =    0.0                 !
 ! D7    D(2,1,6,5)             49.4817         -DE/DX =    0.0                 !
 ! D8    D(2,1,6,15)           171.7266         -DE/DX =    0.0                 !
 ! D9    D(2,1,6,16)           -73.0809         -DE/DX =    0.0                 !
 ! D10   D(7,1,6,5)            -70.7656         -DE/DX =    0.0                 !
 ! D11   D(7,1,6,15)            51.4793         -DE/DX =    0.0                 !
 ! D12   D(7,1,6,16)           166.6719         -DE/DX =    0.0                 !
 ! D13   D(8,1,6,5)            175.2873         -DE/DX =    0.0                 !
 ! D14   D(8,1,6,15)           -62.4678         -DE/DX =    0.0                 !
 ! D15   D(8,1,6,16)            52.7248         -DE/DX =    0.0                 !
 ! D16   D(1,2,3,4)              0.0015         -DE/DX =    0.0                 !
 ! D17   D(1,2,3,10)           166.3609         -DE/DX =    0.0                 !
 ! D18   D(9,2,3,4)           -166.3566         -DE/DX =    0.0                 !
 ! D19   D(9,2,3,10)             0.0028         -DE/DX =    0.0                 !
 ! D20   D(2,3,4,5)             57.9033         -DE/DX =    0.0                 !
 ! D21   D(2,3,4,11)           -33.1131         -DE/DX =    0.0                 !
 ! D22   D(2,3,4,12)           172.812          -DE/DX =    0.0                 !
 ! D23   D(10,3,4,5)          -108.3579         -DE/DX =    0.0                 !
 ! D24   D(10,3,4,11)          160.6256         -DE/DX =    0.0                 !
 ! D25   D(10,3,4,12)            6.5507         -DE/DX =    0.0                 !
 ! D26   D(3,4,5,6)            -49.4673         -DE/DX =    0.0                 !
 ! D27   D(3,4,5,13)          -171.713          -DE/DX =    0.0                 !
 ! D28   D(3,4,5,14)            73.0951         -DE/DX =    0.0                 !
 ! D29   D(11,4,5,6)            70.7793         -DE/DX =    0.0                 !
 ! D30   D(11,4,5,13)          -51.4664         -DE/DX =    0.0                 !
 ! D31   D(11,4,5,14)         -166.6584         -DE/DX =    0.0                 !
 ! D32   D(12,4,5,6)          -175.276          -DE/DX =    0.0                 !
 ! D33   D(12,4,5,13)           62.4784         -DE/DX =    0.0                 !
 ! D34   D(12,4,5,14)          -52.7136         -DE/DX =    0.0                 !
 ! D35   D(4,5,6,1)             -0.0072         -DE/DX =    0.0                 !
 ! D36   D(4,5,6,15)          -102.5147         -DE/DX =    0.0                 !
 ! D37   D(4,5,6,16)           103.2306         -DE/DX =    0.0                 !
 ! D38   D(13,5,6,1)           102.5            -DE/DX =    0.0                 !
 ! D39   D(13,5,6,15)           -0.0076         -DE/DX =    0.0                 !
 ! D40   D(13,5,6,16)         -154.2622         -DE/DX =    0.0                 !
 ! D41   D(14,5,6,1)          -103.2379         -DE/DX =    0.0                 !
 ! D42   D(14,5,6,15)          154.2546         -DE/DX =    0.0                 !
 ! D43   D(14,5,6,16)            0.0            -DE/DX =    0.0                 !
 --------------------------------------------------------------------------------
 GradGradGradGradGradGradGradGradGradGradGradGradGradGradGradGradGradGrad

                          Input orientation:                          
 ---------------------------------------------------------------------
 Center     Atomic      Atomic             Coordinates (Angstroms)
 Number     Number       Type             X           Y           Z
 ---------------------------------------------------------------------
      1          6           0       -0.693867    0.925122    0.048805
      2          6           0        0.042289   -0.175287   -0.351271
      3          6           0        1.449427   -0.177699   -0.335774
      4          6           0        2.180384    0.920173    0.080485
      5          6           0        1.413301    1.236610    2.195740
      6          6           0        0.027334    1.238856    2.180412
      7          1           0       -0.321352    1.929435   -0.117355
      8          1           0       -1.775374    0.854063    0.135505
      9          1           0       -0.467937   -1.130136   -0.469678
     10          1           0        1.958848   -1.134297   -0.442998
     11          1           0        1.815077    1.925763   -0.093733
     12          1           0        3.259470    0.845394    0.190936
     13          1           0        1.956776    2.174351    2.268440
     14          1           0        1.950996    0.363656    2.548291
     15          1           0       -0.514557    2.178357    2.241233
     16          1           0       -0.520813    0.367640    2.520963
 ---------------------------------------------------------------------
                    Distance matrix (angstroms):
                    1          2          3          4          5
     1  C    0.000000
     2  C    1.383072   0.000000
     3  C    2.440866   1.407225   0.000000
     4  C    2.874430   2.440880   1.383074   0.000000
     5  C    3.024321   3.218756   2.900024   2.272191   0.000000
     6  C    2.272072   2.899904   3.218722   3.024381   1.386054
     7  H    1.083984   2.148675   2.761047   2.704891   2.973119
     8  H    1.087301   2.144857   3.418476   3.956693   3.815568
     9  H    2.131656   1.089077   2.145076   3.394120   4.030508
    10  H    3.394109   2.145067   1.089076   2.131657   3.589117
    11  H    2.704885   2.761071   2.148682   1.083979   2.424468
    12  H    3.956695   3.418484   2.144854   1.087299   2.753295
    13  H    3.676039   4.006113   3.545627   2.531819   1.086282
    14  H    3.682116   3.512987   2.976989   2.540157   1.084184
    15  H    2.531697   3.545531   4.006144   3.676216   2.146065
    16  H    2.540138   2.976841   3.512860   3.682077   2.145152
                    6          7          8          9         10
     6  C    0.000000
     7  H    2.424503   0.000000
     8  H    2.753083   1.826073   0.000000
     9  H    3.588927   3.083277   2.452078   0.000000
    10  H    4.030495   3.832990   4.269971   2.426934   0.000000
    11  H    2.973148   2.136563   3.753989   3.833015   3.083281
    12  H    3.815696   3.753995   5.035157   4.269976   2.452074
    13  H    2.146077   3.307849   4.496834   4.929113   4.277739
    14  H    2.145178   3.836782   4.466304   4.146177   3.345405
    15  H    1.086280   2.379543   2.788818   4.277539   4.929148
    16  H    1.084185   3.072411   2.738785   3.345155   4.146034
                   11         12         13         14         15
    11  H    0.000000
    12  H    1.826063   0.000000
    13  H    2.379441   2.789115   0.000000
    14  H    3.072286   2.738850   1.832202   0.000000
    15  H    3.308031   4.497087   2.471486   3.076747   0.000000
    16  H    3.836765   4.466298   3.076754   2.471963   1.832207
                   16
    16  H    0.000000
 Symmetry turned off by external request.
 Stoichiometry    C6H10
 Framework group  C1[X(C6H10)]
 Deg. of freedom    42
 Full point group                 C1      NOp   1
 Rotational constants (GHZ):           4.3402289           3.4582535           2.2555106

 **********************************************************************

            Population analysis using the SCF Density.

 **********************************************************************

 Alpha  occ. eigenvalues --  -10.18530 -10.18529 -10.18097 -10.18038 -10.17570
 Alpha  occ. eigenvalues --  -10.17520  -0.80026  -0.73932  -0.71080  -0.61714
 Alpha  occ. eigenvalues --   -0.57582  -0.51485  -0.48499  -0.45842  -0.42156
 Alpha  occ. eigenvalues --   -0.40123  -0.39990  -0.36126  -0.35004  -0.33746
 Alpha  occ. eigenvalues --   -0.33508  -0.22110  -0.21893
 Alpha virt. eigenvalues --   -0.00859   0.01958   0.09611   0.10981   0.12510
 Alpha virt. eigenvalues --    0.14390   0.14674   0.15217   0.17258   0.20354
 Alpha virt. eigenvalues --    0.20553   0.23971   0.25002   0.29347   0.32424
 Alpha virt. eigenvalues --    0.36491   0.43182   0.46604   0.50501   0.52392
 Alpha virt. eigenvalues --    0.55561   0.57713   0.58425   0.61580   0.62704
 Alpha virt. eigenvalues --    0.64308   0.65792   0.67245   0.67542   0.73026
 Alpha virt. eigenvalues --    0.74529   0.82102   0.85457   0.86438   0.86460
 Alpha virt. eigenvalues --    0.86721   0.88481   0.89386   0.93856   0.95407
 Alpha virt. eigenvalues --    0.96126   0.98970   1.00752   1.05967   1.07041
 Alpha virt. eigenvalues --    1.11172   1.16084   1.23218   1.28853   1.38668
 Alpha virt. eigenvalues --    1.39795   1.49552   1.52973   1.60927   1.61228
 Alpha virt. eigenvalues --    1.73958   1.76495   1.82972   1.92178   1.93226
 Alpha virt. eigenvalues --    1.96102   1.97577   1.99285   2.03562   2.05344
 Alpha virt. eigenvalues --    2.09033   2.13050   2.19524   2.19774   2.25199
 Alpha virt. eigenvalues --    2.27784   2.27831   2.43192   2.52855   2.57659
 Alpha virt. eigenvalues --    2.60458   2.60923   2.67122   2.70070   2.87021
 Alpha virt. eigenvalues --    3.05002   4.12012   4.22897   4.27926   4.28739
 Alpha virt. eigenvalues --    4.43252   4.53694
          Condensed to atoms (all electrons):
               1          2          3          4          5          6
     1  C    5.097539   0.564514  -0.043043  -0.030615  -0.014202   0.090641
     2  C    0.564514   4.789088   0.546456  -0.043042  -0.022228  -0.013618
     3  C   -0.043043   0.546456   4.789077   0.564520  -0.013610  -0.022226
     4  C   -0.030615  -0.043042   0.564520   5.097535   0.090631  -0.014198
     5  C   -0.014202  -0.022228  -0.013610   0.090631   5.023104   0.570255
     6  C    0.090641  -0.013618  -0.022226  -0.014198   0.570255   5.023099
     7  H    0.370666  -0.029616  -0.013393   0.005837  -0.006336  -0.013436
     8  H    0.362285  -0.026897   0.005466   0.000390   0.000938  -0.004599
     9  H   -0.059615   0.369501  -0.045289   0.006652  -0.000100   0.000600
    10  H    0.006652  -0.045290   0.369500  -0.059614   0.000600  -0.000100
    11  H    0.005838  -0.013393  -0.029616   0.370665  -0.013433  -0.006335
    12  H    0.000390   0.005466  -0.026897   0.362286  -0.004597   0.000937
    13  H    0.000868   0.000524   0.000309  -0.008632   0.376821  -0.038185
    14  H    0.000601   0.000448  -0.002513  -0.007003   0.382183  -0.034303
    15  H   -0.008635   0.000309   0.000524   0.000869  -0.038184   0.376820
    16  H   -0.007007  -0.002513   0.000448   0.000601  -0.034305   0.382181
               7          8          9         10         11         12
     1  C    0.370666   0.362285  -0.059615   0.006652   0.005838   0.000390
     2  C   -0.029616  -0.026897   0.369501  -0.045290  -0.013393   0.005466
     3  C   -0.013393   0.005466  -0.045289   0.369500  -0.029616  -0.026897
     4  C    0.005837   0.000390   0.006652  -0.059614   0.370665   0.362286
     5  C   -0.006336   0.000938  -0.000100   0.000600  -0.013433  -0.004597
     6  C   -0.013436  -0.004599   0.000600  -0.000100  -0.006335   0.000937
     7  H    0.564554  -0.043167   0.005452  -0.000012   0.005137  -0.000092
     8  H   -0.043167   0.573319  -0.007310  -0.000159  -0.000092  -0.000007
     9  H    0.005452  -0.007310   0.617441  -0.008002  -0.000012  -0.000159
    10  H   -0.000012  -0.000159  -0.008002   0.617442   0.005452  -0.007310
    11  H    0.005137  -0.000092  -0.000012   0.005452   0.564554  -0.043168
    12  H   -0.000092  -0.000007  -0.000159  -0.007310  -0.043168   0.573319
    13  H    0.000434  -0.000025   0.000006  -0.000044  -0.002769   0.000388
    14  H   -0.000001  -0.000023  -0.000006   0.000399   0.000917  -0.000780
    15  H   -0.002769   0.000387  -0.000044   0.000006   0.000433  -0.000025
    16  H    0.000918  -0.000780   0.000400  -0.000006  -0.000001  -0.000023
              13         14         15         16
     1  C    0.000868   0.000601  -0.008635  -0.007007
     2  C    0.000524   0.000448   0.000309  -0.002513
     3  C    0.000309  -0.002513   0.000524   0.000448
     4  C   -0.008632  -0.007003   0.000869   0.000601
     5  C    0.376821   0.382183  -0.038184  -0.034305
     6  C   -0.038185  -0.034303   0.376820   0.382181
     7  H    0.000434  -0.000001  -0.002769   0.000918
     8  H   -0.000025  -0.000023   0.000387  -0.000780
     9  H    0.000006  -0.000006  -0.000044   0.000400
    10  H   -0.000044   0.000399   0.000006  -0.000006
    11  H   -0.002769   0.000917   0.000433  -0.000001
    12  H    0.000388  -0.000780  -0.000025  -0.000023
    13  H    0.570651  -0.042359  -0.008124   0.004828
    14  H   -0.042359   0.553313   0.004827  -0.007936
    15  H   -0.008124   0.004827   0.570647  -0.042357
    16  H    0.004828  -0.007936  -0.042357   0.553322
 Mulliken charges:
               1
     1  C   -0.336878
     2  C   -0.079709
     3  C   -0.079714
     4  C   -0.336881
     5  C   -0.297536
     6  C   -0.297532
     7  H    0.155824
     8  H    0.140275
     9  H    0.120485
    10  H    0.120484
    11  H    0.155821
    12  H    0.140272
    13  H    0.145310
    14  H    0.152234
    15  H    0.145317
    16  H    0.152231
 Sum of Mulliken charges =   0.00000
 Mulliken charges with hydrogens summed into heavy atoms:
               1
     1  C   -0.040780
     2  C    0.040775
     3  C    0.040770
     4  C   -0.040788
     5  C    0.000008
     6  C    0.000015
 Electronic spatial extent (au):  <R**2>=            861.9559
 Charge=              0.0000 electrons
 Dipole moment (field-independent basis, Debye):
    X=             -0.0036    Y=              0.1907    Z=              0.3455  Tot=              0.3946
 Quadrupole moment (field-independent basis, Debye-Ang):
   XX=            -35.6333   YY=            -35.1540   ZZ=            -41.4409
   XY=              0.1401   XZ=              0.3207   YZ=              0.1930
 Traceless Quadrupole moment (field-independent basis, Debye-Ang):
   XX=              1.7761   YY=              2.2554   ZZ=             -4.0315
   XY=              0.1401   XZ=              0.3207   YZ=              0.1930
 Octapole moment (field-independent basis, Debye-Ang**2):
  XXX=            -78.7220  YYY=            -73.7995  ZZZ=            -83.8446  XYY=            -25.8575
  XXY=            -25.3279  XXZ=            -22.7321  XZZ=            -30.3997  YZZ=            -30.6624
  YYZ=            -25.3118  XYZ=              0.1969
 Hexadecapole moment (field-independent basis, Debye-Ang**3):
 XXXX=           -429.5369 YYYY=           -261.7501 ZZZZ=           -486.7262 XXXY=            -55.3711
 XXXZ=            -50.3677 YYYX=            -53.5355 YYYZ=           -108.5685 ZZZX=            -61.3782
 ZZZY=           -130.7683 XXYY=           -116.7546 XXZZ=           -151.7623 YYZZ=           -123.0853
 XXYZ=            -34.7792 YYXZ=            -18.5766 ZZXY=            -22.0816
 N-N= 2.239819370362D+02 E-N=-9.900881524291D+02  KE= 2.321594236776D+02
