 Default is to use a total of   8 processors:
                                8 via shared-memory
                                1 via Linda
 Entering Link 1 = C:\G16W\l1.exe PID=     10612.
  
 Copyright (c) 1988-2019, Gaussian, Inc.  All Rights Reserved.
  
 This is part of the Gaussian(R) 16 program.  It is based on
 the Gaussian(R) 09 system (copyright 2009, Gaussian, Inc.),
 the Gaussian(R) 03 system (copyright 2003, Gaussian, Inc.),
 the Gaussian(R) 98 system (copyright 1998, Gaussian, Inc.),
 the Gaussian(R) 94 system (copyright 1995, Gaussian, Inc.),
 the Gaussian 92(TM) system (copyright 1992, Gaussian, Inc.),
 the Gaussian 90(TM) system (copyright 1990, Gaussian, Inc.),
 the Gaussian 88(TM) system (copyright 1988, Gaussian, Inc.),
 the Gaussian 86(TM) system (copyright 1986, Carnegie Mellon
 University), and the Gaussian 82(TM) system (copyright 1983,
 Carnegie Mellon University). Gaussian is a federally registered
 trademark of Gaussian, Inc.
  
 This software contains proprietary and confidential information,
 including trade secrets, belonging to Gaussian, Inc.
  
 This software is provided under written license and may be
 used, copied, transmitted, or stored only in accord with that
 written license.
  
 The following legend is applicable only to US Government
 contracts under FAR:
  
                    RESTRICTED RIGHTS LEGEND
  
 Use, reproduction and disclosure by the US Government is
 subject to restrictions as set forth in subparagraphs (a)
 and (c) of the Commercial Computer Software - Restricted
 Rights clause in FAR 52.227-19.
  
 Gaussian, Inc.
 340 Quinnipiac St., Bldg. 40, Wallingford CT 06492
  
  
 ---------------------------------------------------------------
 Warning -- This program may not be used in any manner that
 competes with the business of Gaussian, Inc. or will provide
 assistance to any competitor of Gaussian, Inc.  The licensee
 of this program is prohibited from giving any competitor of
 Gaussian, Inc. access to this program.  By using this program,
 the user acknowledges that Gaussian, Inc. is engaged in the
 business of creating and licensing software in the field of
 computational chemistry and represents and warrants to the
 licensee that it is not a competitor of Gaussian, Inc. and that
 it will not use this program in any manner prohibited above.
 ---------------------------------------------------------------
  

 Cite this work as:
 Gaussian 16, Revision C.01,
 M. J. Frisch, G. W. Trucks, H. B. Schlegel, G. E. Scuseria, 
 M. A. Robb, J. R. Cheeseman, G. Scalmani, V. Barone, 
 G. A. Petersson, H. Nakatsuji, X. Li, M. Caricato, A. V. Marenich, 
 J. Bloino, B. G. Janesko, R. Gomperts, B. Mennucci, H. P. Hratchian, 
 J. V. Ortiz, A. F. Izmaylov, J. L. Sonnenberg, D. Williams-Young, 
 F. Ding, F. Lipparini, F. Egidi, J. Goings, B. Peng, A. Petrone, 
 T. Henderson, D. Ranasinghe, V. G. Zakrzewski, J. Gao, N. Rega, 
 G. Zheng, W. Liang, M. Hada, M. Ehara, K. Toyota, R. Fukuda, 
 J. Hasegawa, M. Ishida, T. Nakajima, Y. Honda, O. Kitao, H. Nakai, 
 T. Vreven, K. Throssell, J. A. Montgomery, Jr., J. E. Peralta, 
 F. Ogliaro, M. J. Bearpark, J. J. Heyd, E. N. Brothers, K. N. Kudin, 
 V. N. Staroverov, T. A. Keith, R. Kobayashi, J. Normand, 
 K. Raghavachari, A. P. Rendell, J. C. Burant, S. S. Iyengar, 
 J. Tomasi, M. Cossi, J. M. Millam, M. Klene, C. Adamo, R. Cammi, 
 J. W. Ochterski, R. L. Martin, K. Morokuma, O. Farkas, 
 J. B. Foresman, and D. J. Fox, Gaussian, Inc., Wallingford CT, 2019.
 
 ******************************************
 Gaussian 16:  EM64W-G16RevC.01 30-May-2019
                12-Nov-2025 
 ******************************************
 %chk=C:\Users\al6323\OneDrive - Imperial College London\Desktop\TSR202511112\Exe
 rcise 1\DFT\TS_guess_opt_TS(Berny)_Energy.chk
 Default route: MaxDisk=10GB
 ------------------------------------------------------------------
 # freq b3lyp/6-31g(d) nosymm opt=(maxcycles=200,noeigen) scf=tight
 ------------------------------------------------------------------
 1/6=200,11=1,18=20,19=15,26=3,38=1/1,3;
 2/9=110,12=2,15=1,17=6,18=5,40=1/2;
 3/5=1,6=6,7=1,11=2,25=1,30=1,71=1,74=-5/1,2,3;
 4//1;
 5/5=2,32=2,38=5/2;
 6/7=2,8=2,9=2,10=2,28=1/1;
 7/30=1/1,2,3,16;
 1/6=200,11=1,18=20,19=15,26=3/3(2);
 2/9=110,15=1/2;
 99//99;
 2/9=110,15=1/2;
 3/5=1,6=6,7=1,11=2,25=1,30=1,71=1,74=-5/1,2,3;
 4/5=5,16=3,69=1/1;
 5/5=2,32=2,38=5/2;
 7/30=1/1,2,3,16;
 1/6=200,11=1,18=20,19=15,26=3/3(-5);
 2/9=110,15=1/2;
 6/7=2,8=2,9=2,10=2,19=2,28=1/1;
 99/9=1/99;
 ------------
 TS Benry DFT
 ------------
 Symbolic Z-matrix:
 Charge =  0 Multiplicity = 1
 C                    -0.69387   0.92512   0.0488 
 C                     0.04229  -0.17529  -0.35127 
 C                     1.44943  -0.1777   -0.33577 
 C                     2.18038   0.92017   0.08049 
 C                     1.4133    1.23661   2.19574 
 C                     0.02733   1.23886   2.18041 
 H                    -0.32135   1.92944  -0.11735 
 H                    -1.77537   0.85406   0.1355 
 H                    -0.46794  -1.13014  -0.46968 
 H                     1.95885  -1.1343   -0.443 
 H                     1.81508   1.92576  -0.09373 
 H                     3.25947   0.84539   0.19094 
 H                     1.95678   2.17435   2.26844 
 H                     1.951     0.36366   2.54829 
 H                    -0.51456   2.17836   2.24123 
 H                    -0.52081   0.36764   2.52096 
 
 Add virtual bond connecting atoms C5         and C4         Dist= 4.29D+00.
 Add virtual bond connecting atoms C5         and H11        Dist= 4.58D+00.
 Add virtual bond connecting atoms C6         and C1         Dist= 4.29D+00.
 Add virtual bond connecting atoms C6         and H7         Dist= 4.58D+00.
 Add virtual bond connecting atoms H13        and H11        Dist= 4.50D+00.

 GradGradGradGradGradGradGradGradGradGradGradGradGradGradGradGradGradGrad
 Berny optimization.
 Initialization pass.
                           ----------------------------
                           !    Initial Parameters    !
                           ! (Angstroms and Degrees)  !
 --------------------------                            --------------------------
 ! Name  Definition              Value          Derivative Info.                !
 --------------------------------------------------------------------------------
 ! R1    R(1,2)                  1.3831         estimate D2E/DX2                !
 ! R2    R(1,6)                  2.2721         estimate D2E/DX2                !
 ! R3    R(1,7)                  1.084          estimate D2E/DX2                !
 ! R4    R(1,8)                  1.0873         estimate D2E/DX2                !
 ! R5    R(2,3)                  1.4072         estimate D2E/DX2                !
 ! R6    R(2,9)                  1.0891         estimate D2E/DX2                !
 ! R7    R(3,4)                  1.3831         estimate D2E/DX2                !
 ! R8    R(3,10)                 1.0891         estimate D2E/DX2                !
 ! R9    R(4,5)                  2.2722         estimate D2E/DX2                !
 ! R10   R(4,11)                 1.084          estimate D2E/DX2                !
 ! R11   R(4,12)                 1.0873         estimate D2E/DX2                !
 ! R12   R(5,6)                  1.3861         estimate D2E/DX2                !
 ! R13   R(5,11)                 2.4245         estimate D2E/DX2                !
 ! R14   R(5,13)                 1.0863         estimate D2E/DX2                !
 ! R15   R(5,14)                 1.0842         estimate D2E/DX2                !
 ! R16   R(6,7)                  2.4245         estimate D2E/DX2                !
 ! R17   R(6,15)                 1.0863         estimate D2E/DX2                !
 ! R18   R(6,16)                 1.0842         estimate D2E/DX2                !
 ! R19   R(11,13)                2.3794         estimate D2E/DX2                !
 ! A1    A(2,1,6)              102.2569         estimate D2E/DX2                !
 ! A2    A(2,1,7)              120.6569         estimate D2E/DX2                !
 ! A3    A(2,1,8)              120.0327         estimate D2E/DX2                !
 ! A4    A(6,1,8)              104.4742         estimate D2E/DX2                !
 ! A5    A(7,1,8)              114.4938         estimate D2E/DX2                !
 ! A6    A(1,2,3)              122.033          estimate D2E/DX2                !
 ! A7    A(1,2,9)              118.6629         estimate D2E/DX2                !
 ! A8    A(3,2,9)              117.9149         estimate D2E/DX2                !
 ! A9    A(2,3,4)              122.034          estimate D2E/DX2                !
 ! A10   A(2,3,10)             117.9141         estimate D2E/DX2                !
 ! A11   A(4,3,10)             118.6629         estimate D2E/DX2                !
 ! A12   A(3,4,5)              102.2575         estimate D2E/DX2                !
 ! A13   A(3,4,11)             120.6577         estimate D2E/DX2                !
 ! A14   A(3,4,12)             120.0324         estimate D2E/DX2                !
 ! A15   A(5,4,12)             104.4809         estimate D2E/DX2                !
 ! A16   A(11,4,12)            114.4934         estimate D2E/DX2                !
 ! A17   A(4,5,6)              109.1175         estimate D2E/DX2                !
 ! A18   A(4,5,13)              90.7805         estimate D2E/DX2                !
 ! A19   A(4,5,14)              91.3269         estimate D2E/DX2                !
 ! A20   A(6,5,11)              98.9054         estimate D2E/DX2                !
 ! A21   A(6,5,13)             119.9746         estimate D2E/DX2                !
 ! A22   A(6,5,14)             120.0539         estimate D2E/DX2                !
 ! A23   A(11,5,14)            116.9847         estimate D2E/DX2                !
 ! A24   A(13,5,14)            115.1623         estimate D2E/DX2                !
 ! A25   A(1,6,5)              109.1202         estimate D2E/DX2                !
 ! A26   A(1,6,15)              90.7797         estimate D2E/DX2                !
 ! A27   A(1,6,16)              91.3321         estimate D2E/DX2                !
 ! A28   A(5,6,7)               98.9023         estimate D2E/DX2                !
 ! A29   A(5,6,15)             119.9736         estimate D2E/DX2                !
 ! A30   A(5,6,16)             120.0514         estimate D2E/DX2                !
 ! A31   A(7,6,15)              74.6315         estimate D2E/DX2                !
 ! A32   A(7,6,16)             116.9916         estimate D2E/DX2                !
 ! A33   A(15,6,16)            115.1628         estimate D2E/DX2                !
 ! A34   A(4,11,13)             85.2559         estimate D2E/DX2                !
 ! D1    D(6,1,2,3)            -57.91           estimate D2E/DX2                !
 ! D2    D(6,1,2,9)            108.35           estimate D2E/DX2                !
 ! D3    D(7,1,2,3)             33.1152         estimate D2E/DX2                !
 ! D4    D(7,1,2,9)           -160.6247         estimate D2E/DX2                !
 ! D5    D(8,1,2,3)           -172.8098         estimate D2E/DX2                !
 ! D6    D(8,1,2,9)             -6.5497         estimate D2E/DX2                !
 ! D7    D(2,1,6,5)             49.4817         estimate D2E/DX2                !
 ! D8    D(2,1,6,15)           171.7266         estimate D2E/DX2                !
 ! D9    D(2,1,6,16)           -73.0809         estimate D2E/DX2                !
 ! D10   D(8,1,6,5)            175.2873         estimate D2E/DX2                !
 ! D11   D(8,1,6,15)           -62.4678         estimate D2E/DX2                !
 ! D12   D(8,1,6,16)            52.7248         estimate D2E/DX2                !
 ! D13   D(1,2,3,4)              0.0015         estimate D2E/DX2                !
 ! D14   D(1,2,3,10)           166.3609         estimate D2E/DX2                !
 ! D15   D(9,2,3,4)           -166.3566         estimate D2E/DX2                !
 ! D16   D(9,2,3,10)             0.0028         estimate D2E/DX2                !
 ! D17   D(2,3,4,5)             57.9033         estimate D2E/DX2                !
 ! D18   D(2,3,4,11)           -33.1131         estimate D2E/DX2                !
 ! D19   D(2,3,4,12)           172.812          estimate D2E/DX2                !
 ! D20   D(10,3,4,5)          -108.358          estimate D2E/DX2                !
 ! D21   D(10,3,4,11)          160.6256         estimate D2E/DX2                !
 ! D22   D(10,3,4,12)            6.5507         estimate D2E/DX2                !
 ! D23   D(3,4,5,6)            -49.4673         estimate D2E/DX2                !
 ! D24   D(3,4,5,13)          -171.713          estimate D2E/DX2                !
 ! D25   D(3,4,5,14)            73.0951         estimate D2E/DX2                !
 ! D26   D(12,4,5,6)          -175.276          estimate D2E/DX2                !
 ! D27   D(12,4,5,13)           62.4784         estimate D2E/DX2                !
 ! D28   D(12,4,5,14)          -52.7136         estimate D2E/DX2                !
 ! D29   D(3,4,11,13)          122.0841         estimate D2E/DX2                !
 ! D30   D(12,4,11,13)         -82.4936         estimate D2E/DX2                !
 ! D31   D(4,5,6,1)             -0.0072         estimate D2E/DX2                !
 ! D32   D(4,5,6,7)            -25.1848         estimate D2E/DX2                !
 ! D33   D(4,5,6,15)          -102.5147         estimate D2E/DX2                !
 ! D34   D(4,5,6,16)           103.2306         estimate D2E/DX2                !
 ! D35   D(11,5,6,1)            25.1727         estimate D2E/DX2                !
 ! D36   D(11,5,6,7)            -0.0048         estimate D2E/DX2                !
 ! D37   D(11,5,6,15)          -77.3348         estimate D2E/DX2                !
 ! D38   D(11,5,6,16)          128.4106         estimate D2E/DX2                !
 ! D39   D(13,5,6,1)           102.5            estimate D2E/DX2                !
 ! D40   D(13,5,6,7)            77.3224         estimate D2E/DX2                !
 ! D41   D(13,5,6,15)           -0.0076         estimate D2E/DX2                !
 ! D42   D(13,5,6,16)         -154.2622         estimate D2E/DX2                !
 ! D43   D(14,5,6,1)          -103.2379         estimate D2E/DX2                !
 ! D44   D(14,5,6,7)          -128.4154         estimate D2E/DX2                !
 ! D45   D(14,5,6,15)          154.2546         estimate D2E/DX2                !
 ! D46   D(14,5,6,16)            0.0            estimate D2E/DX2                !
 ! D47   D(13,5,11,4)          125.7874         estimate D2E/DX2                !
 --------------------------------------------------------------------------------
 Trust Radius=3.00D-01 FncErr=1.00D-07 GrdErr=1.00D-06 EigMax=2.50D+02 EigMin=1.00D-04
 Number of steps in this run=    100 maximum allowed number of steps=    100.
 GradGradGradGradGradGradGradGradGradGradGradGradGradGradGradGradGradGrad

                          Input orientation:                          
 ---------------------------------------------------------------------
 Center     Atomic      Atomic             Coordinates (Angstroms)
 Number     Number       Type             X           Y           Z
 ---------------------------------------------------------------------
      1          6           0       -0.693868    0.925122    0.048805
      2          6           0        0.042289   -0.175287   -0.351271
      3          6           0        1.449427   -0.177699   -0.335774
      4          6           0        2.180384    0.920173    0.080485
      5          6           0        1.413301    1.236610    2.195741
      6          6           0        0.027334    1.238856    2.180413
      7          1           0       -0.321352    1.929435   -0.117355
      8          1           0       -1.775374    0.854063    0.135505
      9          1           0       -0.467937   -1.130136   -0.469678
     10          1           0        1.958848   -1.134297   -0.442998
     11          1           0        1.815077    1.925763   -0.093733
     12          1           0        3.259471    0.845394    0.190936
     13          1           0        1.956776    2.174351    2.268440
     14          1           0        1.950996    0.363656    2.548291
     15          1           0       -0.514557    2.178357    2.241233
     16          1           0       -0.520813    0.367640    2.520963
 ---------------------------------------------------------------------
                    Distance matrix (angstroms):
                    1          2          3          4          5
     1  C    0.000000
     2  C    1.383072   0.000000
     3  C    2.440866   1.407225   0.000000
     4  C    2.874430   2.440880   1.383074   0.000000
     5  C    3.024321   3.218757   2.900024   2.272191   0.000000
     6  C    2.272072   2.899905   3.218722   3.024381   1.386054
     7  H    1.083984   2.148676   2.761047   2.704891   2.973120
     8  H    1.087301   2.144857   3.418476   3.956693   3.815569
     9  H    2.131656   1.089077   2.145076   3.394120   4.030508
    10  H    3.394109   2.145067   1.089076   2.131657   3.589117
    11  H    2.704885   2.761071   2.148682   1.083979   2.424468
    12  H    3.956696   3.418484   2.144854   1.087299   2.753295
    13  H    3.676039   4.006113   3.545627   2.531819   1.086282
    14  H    3.682116   3.512988   2.976989   2.540157   1.084184
    15  H    2.531697   3.545532   4.006145   3.676216   2.146065
    16  H    2.540138   2.976841   3.512860   3.682077   2.145152
                    6          7          8          9         10
     6  C    0.000000
     7  H    2.424503   0.000000
     8  H    2.753083   1.826073   0.000000
     9  H    3.588927   3.083277   2.452078   0.000000
    10  H    4.030495   3.832990   4.269971   2.426934   0.000000
    11  H    2.973148   2.136563   3.753989   3.833015   3.083281
    12  H    3.815697   3.753995   5.035157   4.269976   2.452075
    13  H    2.146077   3.307850   4.496834   4.929113   4.277740
    14  H    2.145178   3.836782   4.466304   4.146177   3.345405
    15  H    1.086281   2.379543   2.788818   4.277539   4.929149
    16  H    1.084185   3.072411   2.738785   3.345155   4.146034
                   11         12         13         14         15
    11  H    0.000000
    12  H    1.826063   0.000000
    13  H    2.379441   2.789116   0.000000
    14  H    3.072286   2.738850   1.832202   0.000000
    15  H    3.308031   4.497087   2.471486   3.076747   0.000000
    16  H    3.836765   4.466298   3.076754   2.471963   1.832207
                   16
    16  H    0.000000
 Symmetry turned off by external request.
 Stoichiometry    C6H10
 Framework group  C1[X(C6H10)]
 Deg. of freedom    42
 Full point group                 C1      NOp   1
 Rotational constants (GHZ):           4.3402283           3.4582530           2.2555103
 Standard basis: 6-31G(d) (6D, 7F)
   110 basis functions,   208 primitive gaussians,   110 cartesian basis functions
    23 alpha electrons       23 beta electrons
       nuclear repulsion energy       223.9819208905 Hartrees.
 NAtoms=   16 NActive=   16 NUniq=   16 SFac= 1.00D+00 NAtFMM=   60 NAOKFM=F Big=F
 Integral buffers will be    131072 words long.
 Raffenetti 2 integral format.
 Two-electron integral symmetry is turned off.
 One-electron integrals computed using PRISM.
 NBasis=   110 RedAO= T EigKep=  2.28D-03  NBF=   110
 NBsUse=   110 1.00D-06 EigRej= -1.00D+00 NBFU=   110
 ExpMin= 1.61D-01 ExpMax= 3.05D+03 ExpMxC= 4.57D+02 IAcc=3 IRadAn=         5 AccDes= 0.00D+00
 Harris functional with IExCor=  402 and IRadAn=       5 diagonalized for initial guess.
 HarFok:  IExCor=  402 AccDes= 0.00D+00 IRadAn=         5 IDoV= 1 UseB2=F ITyADJ=14
 ICtDFT=  3500011 ScaDFX=  1.000000  1.000000  1.000000  1.000000
 FoFCou: FMM=F IPFlag=           0 FMFlag=      100000 FMFlg1=           0
         NFxFlg=           0 DoJE=T BraDBF=F KetDBF=T FulRan=T
         wScrn=  0.000000 ICntrl=       500 IOpCl=  0 I1Cent=   200000004 NGrid=           0
         NMat0=    1 NMatS0=      1 NMatT0=    0 NMatD0=    1 NMtDS0=    0 NMtDT0=    0
 Symmetry not used in FoFCou.
 Requested convergence on RMS density matrix=1.00D-08 within 128 cycles.
 Requested convergence on MAX density matrix=1.00D-06.
 Requested convergence on             energy=1.00D-06.
 No special actions if energy rises.
 Integral accuracy reduced to 1.0D-05 until final iterations.
 Initial convergence to 1.0D-05 achieved.  Increase integral accuracy.
 SCF Done:  E(RB3LYP) =  -234.543882734     A.U. after   13 cycles
            NFock= 13  Conv=0.52D-08     -V/T= 2.0103

 **********************************************************************

            Population analysis using the SCF Density.

 **********************************************************************

 Alpha  occ. eigenvalues --  -10.18530 -10.18529 -10.18097 -10.18038 -10.17570
 Alpha  occ. eigenvalues --  -10.17520  -0.80026  -0.73932  -0.71080  -0.61714
 Alpha  occ. eigenvalues --   -0.57582  -0.51485  -0.48499  -0.45842  -0.42156
 Alpha  occ. eigenvalues --   -0.40123  -0.39990  -0.36126  -0.35004  -0.33746
 Alpha  occ. eigenvalues --   -0.33508  -0.22110  -0.21893
 Alpha virt. eigenvalues --   -0.00859   0.01958   0.09611   0.10981   0.12510
 Alpha virt. eigenvalues --    0.14390   0.14674   0.15217   0.17258   0.20354
 Alpha virt. eigenvalues --    0.20553   0.23971   0.25002   0.29347   0.32424
 Alpha virt. eigenvalues --    0.36491   0.43182   0.46604   0.50501   0.52392
 Alpha virt. eigenvalues --    0.55561   0.57713   0.58425   0.61580   0.62704
 Alpha virt. eigenvalues --    0.64308   0.65792   0.67245   0.67542   0.73026
 Alpha virt. eigenvalues --    0.74529   0.82102   0.85457   0.86438   0.86460
 Alpha virt. eigenvalues --    0.86721   0.88481   0.89386   0.93856   0.95407
 Alpha virt. eigenvalues --    0.96126   0.98970   1.00752   1.05967   1.07041
 Alpha virt. eigenvalues --    1.11172   1.16084   1.23218   1.28853   1.38668
 Alpha virt. eigenvalues --    1.39795   1.49552   1.52973   1.60927   1.61228
 Alpha virt. eigenvalues --    1.73958   1.76495   1.82972   1.92178   1.93226
 Alpha virt. eigenvalues --    1.96102   1.97577   1.99285   2.03562   2.05344
 Alpha virt. eigenvalues --    2.09033   2.13050   2.19524   2.19774   2.25199
 Alpha virt. eigenvalues --    2.27784   2.27831   2.43192   2.52855   2.57659
 Alpha virt. eigenvalues --    2.60458   2.60923   2.67122   2.70070   2.87021
 Alpha virt. eigenvalues --    3.05002   4.12012   4.22897   4.27926   4.28739
 Alpha virt. eigenvalues --    4.43252   4.53694
          Condensed to atoms (all electrons):
               1          2          3          4          5          6
     1  C    5.097539   0.564514  -0.043043  -0.030615  -0.014202   0.090641
     2  C    0.564514   4.789088   0.546456  -0.043042  -0.022228  -0.013618
     3  C   -0.043043   0.546456   4.789077   0.564520  -0.013610  -0.022226
     4  C   -0.030615  -0.043042   0.564520   5.097535   0.090631  -0.014198
     5  C   -0.014202  -0.022228  -0.013610   0.090631   5.023104   0.570255
     6  C    0.090641  -0.013618  -0.022226  -0.014198   0.570255   5.023099
     7  H    0.370666  -0.029616  -0.013393   0.005837  -0.006336  -0.013436
     8  H    0.362285  -0.026897   0.005466   0.000390   0.000938  -0.004599
     9  H   -0.059615   0.369501  -0.045289   0.006652  -0.000100   0.000600
    10  H    0.006652  -0.045290   0.369500  -0.059614   0.000600  -0.000100
    11  H    0.005838  -0.013393  -0.029616   0.370665  -0.013433  -0.006335
    12  H    0.000390   0.005466  -0.026897   0.362286  -0.004597   0.000937
    13  H    0.000868   0.000524   0.000309  -0.008632   0.376821  -0.038185
    14  H    0.000601   0.000448  -0.002513  -0.007003   0.382183  -0.034303
    15  H   -0.008635   0.000309   0.000524   0.000869  -0.038184   0.376820
    16  H   -0.007007  -0.002513   0.000448   0.000601  -0.034305   0.382181
               7          8          9         10         11         12
     1  C    0.370666   0.362285  -0.059615   0.006652   0.005838   0.000390
     2  C   -0.029616  -0.026897   0.369501  -0.045290  -0.013393   0.005466
     3  C   -0.013393   0.005466  -0.045289   0.369500  -0.029616  -0.026897
     4  C    0.005837   0.000390   0.006652  -0.059614   0.370665   0.362286
     5  C   -0.006336   0.000938  -0.000100   0.000600  -0.013433  -0.004597
     6  C   -0.013436  -0.004599   0.000600  -0.000100  -0.006335   0.000937
     7  H    0.564554  -0.043167   0.005452  -0.000012   0.005137  -0.000092
     8  H   -0.043167   0.573319  -0.007310  -0.000159  -0.000092  -0.000007
     9  H    0.005452  -0.007310   0.617441  -0.008002  -0.000012  -0.000159
    10  H   -0.000012  -0.000159  -0.008002   0.617442   0.005452  -0.007310
    11  H    0.005137  -0.000092  -0.000012   0.005452   0.564554  -0.043168
    12  H   -0.000092  -0.000007  -0.000159  -0.007310  -0.043168   0.573319
    13  H    0.000434  -0.000025   0.000006  -0.000044  -0.002769   0.000388
    14  H   -0.000001  -0.000023  -0.000006   0.000399   0.000917  -0.000780
    15  H   -0.002769   0.000387  -0.000044   0.000006   0.000433  -0.000025
    16  H    0.000918  -0.000780   0.000400  -0.000006  -0.000001  -0.000023
              13         14         15         16
     1  C    0.000868   0.000601  -0.008635  -0.007007
     2  C    0.000524   0.000448   0.000309  -0.002513
     3  C    0.000309  -0.002513   0.000524   0.000448
     4  C   -0.008632  -0.007003   0.000869   0.000601
     5  C    0.376821   0.382183  -0.038184  -0.034305
     6  C   -0.038185  -0.034303   0.376820   0.382181
     7  H    0.000434  -0.000001  -0.002769   0.000918
     8  H   -0.000025  -0.000023   0.000387  -0.000780
     9  H    0.000006  -0.000006  -0.000044   0.000400
    10  H   -0.000044   0.000399   0.000006  -0.000006
    11  H   -0.002769   0.000917   0.000433  -0.000001
    12  H    0.000388  -0.000780  -0.000025  -0.000023
    13  H    0.570651  -0.042359  -0.008124   0.004828
    14  H   -0.042359   0.553314   0.004827  -0.007936
    15  H   -0.008124   0.004827   0.570647  -0.042357
    16  H    0.004828  -0.007936  -0.042357   0.553322
 Mulliken charges:
               1
     1  C   -0.336878
     2  C   -0.079709
     3  C   -0.079714
     4  C   -0.336881
     5  C   -0.297536
     6  C   -0.297532
     7  H    0.155823
     8  H    0.140275
     9  H    0.120485
    10  H    0.120484
    11  H    0.155821
    12  H    0.140272
    13  H    0.145310
    14  H    0.152234
    15  H    0.145316
    16  H    0.152231
 Sum of Mulliken charges =   0.00000
 Mulliken charges with hydrogens summed into heavy atoms:
               1
     1  C   -0.040780
     2  C    0.040775
     3  C    0.040770
     4  C   -0.040788
     5  C    0.000008
     6  C    0.000015
 Electronic spatial extent (au):  <R**2>=            861.9560
 Charge=              0.0000 electrons
 Dipole moment (field-independent basis, Debye):
    X=             -0.0036    Y=              0.1907    Z=              0.3455  Tot=              0.3946
 Quadrupole moment (field-independent basis, Debye-Ang):
   XX=            -35.6333   YY=            -35.1540   ZZ=            -41.4409
   XY=              0.1401   XZ=              0.3207   YZ=              0.1930
 Traceless Quadrupole moment (field-independent basis, Debye-Ang):
   XX=              1.7761   YY=              2.2554   ZZ=             -4.0315
   XY=              0.1401   XZ=              0.3207   YZ=              0.1930
 Octapole moment (field-independent basis, Debye-Ang**2):
  XXX=            -78.7220  YYY=            -73.7995  ZZZ=            -83.8446  XYY=            -25.8575
  XXY=            -25.3280  XXZ=            -22.7321  XZZ=            -30.3998  YZZ=            -30.6624
  YYZ=            -25.3118  XYZ=              0.1969
 Hexadecapole moment (field-independent basis, Debye-Ang**3):
 XXXX=           -429.5370 YYYY=           -261.7502 ZZZZ=           -486.7263 XXXY=            -55.3712
 XXXZ=            -50.3677 YYYX=            -53.5355 YYYZ=           -108.5685 ZZZX=            -61.3782
 ZZZY=           -130.7683 XXYY=           -116.7546 XXZZ=           -151.7624 YYZZ=           -123.0853
 XXYZ=            -34.7793 YYXZ=            -18.5766 ZZXY=            -22.0817
 N-N= 2.239819208905D+02 E-N=-9.900881158458D+02  KE= 2.321594207694D+02
 Calling FoFJK, ICntrl=      2127 FMM=F ISym2X=0 I1Cent= 0 IOpClX= 0 NMat=1 NMatS=1 NMatT=0.
 -------------------------------------------------------------------
 Center     Atomic                   Forces (Hartrees/Bohr)
 Number     Number              X              Y              Z
 -------------------------------------------------------------------
      1        6           0.000000558    0.000000913    0.000000032
      2        6           0.000001453    0.000000099   -0.000000593
      3        6          -0.000000147   -0.000000204    0.000000361
      4        6           0.000000514    0.000000647    0.000002248
      5        6           0.000000076   -0.000000756   -0.000000548
      6        6          -0.000001925   -0.000000564   -0.000001400
      7        1           0.000000329    0.000000666    0.000000103
      8        1           0.000000480    0.000000540   -0.000002226
      9        1           0.000000691    0.000000922   -0.000002305
     10        1           0.000000621    0.000000612   -0.000000593
     11        1           0.000001216    0.000000426    0.000001658
     12        1           0.000000456   -0.000000100    0.000001316
     13        1          -0.000001053   -0.000000889    0.000002192
     14        1          -0.000001160   -0.000001028    0.000000543
     15        1          -0.000000707   -0.000000601    0.000000421
     16        1          -0.000001401   -0.000000685   -0.000001210
 -------------------------------------------------------------------
 Cartesian Forces:  Max     0.000002305 RMS     0.000001030

 GradGradGradGradGradGradGradGradGradGradGradGradGradGradGradGradGradGrad
 Berny optimization.
 FormGI is forming the generalized inverse of G from B-inverse, IUseBI=4.
 Internal  Forces:  Max     0.000001060 RMS     0.000000238
 Search for a local minimum.
 Step number   1 out of a maximum of  100
 All quantities printed in internal units (Hartrees-Bohrs-Radians)
 Mixed Optimization -- En-DIIS/RFO-DIIS
 Second derivative matrix not updated -- first step.
 ITU=  0
     Eigenvalues ---    0.01474   0.02160   0.02179   0.02314   0.02407
     Eigenvalues ---    0.02475   0.02597   0.03952   0.04281   0.04566
     Eigenvalues ---    0.04743   0.05246   0.05318   0.05799   0.06287
     Eigenvalues ---    0.06847   0.08392   0.08712   0.10187   0.10277
     Eigenvalues ---    0.10904   0.11936   0.14615   0.15428   0.15630
     Eigenvalues ---    0.15710   0.17768   0.18929   0.30407   0.31513
     Eigenvalues ---    0.33636   0.34920   0.34920   0.35126   0.35127
     Eigenvalues ---    0.35246   0.35493   0.35493   0.41081   0.44362
     Eigenvalues ---    0.46472   0.48379
 RFO step:  Lambda= 0.00000000D+00 EMin= 1.47365988D-02
 Linear search not attempted -- first point.
 Iteration  1 RMS(Cart)=  0.00000350 RMS(Int)=  0.00000000
 Iteration  2 RMS(Cart)=  0.00000000 RMS(Int)=  0.00000000
 Variable       Old X    -DE/DX   Delta X   Delta X   Delta X     New X
                                 (Linear)    (Quad)   (Total)
    R1        2.61363   0.00000   0.00000   0.00000   0.00000   2.61363
    R2        4.29359   0.00000   0.00000  -0.00001  -0.00001   4.29359
    R3        2.04843   0.00000   0.00000   0.00000   0.00000   2.04843
    R4        2.05470   0.00000   0.00000   0.00000   0.00000   2.05470
    R5        2.65927   0.00000   0.00000   0.00000   0.00000   2.65927
    R6        2.05806   0.00000   0.00000   0.00000   0.00000   2.05806
    R7        2.61363   0.00000   0.00000   0.00000   0.00000   2.61363
    R8        2.05806   0.00000   0.00000   0.00000   0.00000   2.05806
    R9        4.29382   0.00000   0.00000  -0.00001  -0.00001   4.29381
   R10        2.04842   0.00000   0.00000   0.00000   0.00000   2.04842
   R11        2.05470   0.00000   0.00000   0.00000   0.00000   2.05470
   R12        2.61926   0.00000   0.00000   0.00000   0.00000   2.61927
   R13        4.58158   0.00000   0.00000  -0.00001  -0.00001   4.58157
   R14        2.05278   0.00000   0.00000   0.00000   0.00000   2.05278
   R15        2.04881   0.00000   0.00000   0.00000   0.00000   2.04881
   R16        4.58165   0.00000   0.00000  -0.00001  -0.00001   4.58164
   R17        2.05277   0.00000   0.00000   0.00000   0.00000   2.05277
   R18        2.04881   0.00000   0.00000   0.00000   0.00000   2.04881
   R19        4.49649   0.00000   0.00000   0.00000   0.00000   4.49649
    A1        1.78472   0.00000   0.00000   0.00000   0.00000   1.78472
    A2        2.10586   0.00000   0.00000   0.00000   0.00000   2.10586
    A3        2.09497   0.00000   0.00000   0.00000   0.00000   2.09496
    A4        1.82342   0.00000   0.00000   0.00001   0.00001   1.82342
    A5        1.99829   0.00000   0.00000   0.00000   0.00000   1.99829
    A6        2.12988   0.00000   0.00000   0.00000   0.00000   2.12988
    A7        2.07106   0.00000   0.00000   0.00000   0.00000   2.07106
    A8        2.05800   0.00000   0.00000   0.00000   0.00000   2.05800
    A9        2.12990   0.00000   0.00000   0.00000   0.00000   2.12990
   A10        2.05799   0.00000   0.00000   0.00000   0.00000   2.05799
   A11        2.07106   0.00000   0.00000   0.00000   0.00000   2.07106
   A12        1.78473   0.00000   0.00000   0.00000   0.00000   1.78473
   A13        2.10587   0.00000   0.00000   0.00000   0.00000   2.10588
   A14        2.09496   0.00000   0.00000   0.00000   0.00000   2.09496
   A15        1.82354   0.00000   0.00000   0.00001   0.00001   1.82354
   A16        1.99829   0.00000   0.00000   0.00000   0.00000   1.99828
   A17        1.90446   0.00000   0.00000   0.00000   0.00000   1.90446
   A18        1.58442   0.00000   0.00000   0.00000   0.00000   1.58442
   A19        1.59395   0.00000   0.00000   0.00000   0.00000   1.59395
   A20        1.72622   0.00000   0.00000   0.00000   0.00000   1.72623
   A21        2.09395   0.00000   0.00000   0.00000   0.00000   2.09395
   A22        2.09534   0.00000   0.00000   0.00000   0.00000   2.09534
   A23        2.04177   0.00000   0.00000   0.00000   0.00000   2.04177
   A24        2.00996   0.00000   0.00000   0.00000   0.00000   2.00996
   A25        1.90451   0.00000   0.00000   0.00000   0.00000   1.90451
   A26        1.58441   0.00000   0.00000   0.00000   0.00000   1.58441
   A27        1.59405   0.00000   0.00000   0.00000   0.00000   1.59404
   A28        1.72617   0.00000   0.00000   0.00000   0.00000   1.72617
   A29        2.09393   0.00000   0.00000   0.00000   0.00000   2.09393
   A30        2.09529   0.00000   0.00000   0.00000   0.00000   2.09529
   A31        1.30257   0.00000   0.00000   0.00000   0.00000   1.30257
   A32        2.04189   0.00000   0.00000   0.00000   0.00000   2.04189
   A33        2.00997   0.00000   0.00000   0.00000   0.00000   2.00997
   A34        1.48800   0.00000   0.00000   0.00000   0.00000   1.48800
    D1       -1.01072   0.00000   0.00000   0.00000   0.00000  -1.01072
    D2        1.89107   0.00000   0.00000   0.00001   0.00001   1.89108
    D3        0.57797   0.00000   0.00000   0.00000   0.00000   0.57797
    D4       -2.80343   0.00000   0.00000   0.00001   0.00001  -2.80342
    D5       -3.01610   0.00000   0.00000   0.00000   0.00000  -3.01610
    D6       -0.11431   0.00000   0.00000   0.00000   0.00000  -0.11431
    D7        0.86362   0.00000   0.00000   0.00000   0.00000   0.86362
    D8        2.99719   0.00000   0.00000   0.00000   0.00000   2.99719
    D9       -1.27550   0.00000   0.00000   0.00000   0.00000  -1.27551
   D10        3.05934   0.00000   0.00000   0.00000   0.00000   3.05934
   D11       -1.09027   0.00000   0.00000   0.00000   0.00000  -1.09027
   D12        0.92022   0.00000   0.00000   0.00000   0.00000   0.92022
   D13        0.00003   0.00000   0.00000   0.00000   0.00000   0.00003
   D14        2.90355   0.00000   0.00000   0.00001   0.00001   2.90355
   D15       -2.90347   0.00000   0.00000  -0.00001  -0.00001  -2.90348
   D16        0.00005   0.00000   0.00000   0.00000   0.00000   0.00005
   D17        1.01060   0.00000   0.00000   0.00000   0.00000   1.01060
   D18       -0.57793   0.00000   0.00000   0.00000   0.00000  -0.57794
   D19        3.01614   0.00000   0.00000   0.00000   0.00000   3.01614
   D20       -1.89120   0.00000   0.00000  -0.00001  -0.00001  -1.89121
   D21        2.80345   0.00000   0.00000  -0.00001  -0.00001   2.80344
   D22        0.11433   0.00000   0.00000   0.00000   0.00000   0.11433
   D23       -0.86337   0.00000   0.00000   0.00000   0.00000  -0.86337
   D24       -2.99696   0.00000   0.00000   0.00000   0.00000  -2.99696
   D25        1.27575   0.00000   0.00000   0.00000   0.00000   1.27575
   D26       -3.05914   0.00000   0.00000   0.00000   0.00000  -3.05914
   D27        1.09045   0.00000   0.00000   0.00000   0.00000   1.09046
   D28       -0.92003   0.00000   0.00000   0.00000   0.00000  -0.92002
   D29        2.13077   0.00000   0.00000   0.00000   0.00000   2.13077
   D30       -1.43979   0.00000   0.00000  -0.00001  -0.00001  -1.43979
   D31       -0.00013   0.00000   0.00000   0.00000   0.00000  -0.00013
   D32       -0.43956   0.00000   0.00000   0.00000   0.00000  -0.43956
   D33       -1.78922   0.00000   0.00000   0.00000   0.00000  -1.78922
   D34        1.80171   0.00000   0.00000   0.00000   0.00000   1.80171
   D35        0.43935   0.00000   0.00000   0.00000   0.00000   0.43935
   D36       -0.00008   0.00000   0.00000   0.00000   0.00000  -0.00008
   D37       -1.34975   0.00000   0.00000   0.00000   0.00000  -1.34975
   D38        2.24119   0.00000   0.00000   0.00000   0.00000   2.24119
   D39        1.78896   0.00000   0.00000   0.00001   0.00001   1.78897
   D40        1.34953   0.00000   0.00000   0.00000   0.00000   1.34953
   D41       -0.00013   0.00000   0.00000   0.00000   0.00000  -0.00013
   D42       -2.69238   0.00000   0.00000   0.00001   0.00001  -2.69238
   D43       -1.80184   0.00000   0.00000   0.00000   0.00000  -1.80184
   D44       -2.24127   0.00000   0.00000   0.00000   0.00000  -2.24127
   D45        2.69225   0.00000   0.00000   0.00000   0.00000   2.69225
   D46        0.00000   0.00000   0.00000   0.00000   0.00000   0.00000
   D47        2.19540   0.00000   0.00000   0.00001   0.00001   2.19541
         Item               Value     Threshold  Converged?
 Maximum Force            0.000001     0.000450     YES
 RMS     Force            0.000000     0.000300     YES
 Maximum Displacement     0.000014     0.001800     YES
 RMS     Displacement     0.000003     0.001200     YES
 Predicted change in Energy=-3.212340D-11
 Optimization completed.
    -- Stationary point found.
                           ----------------------------
                           !   Optimized Parameters   !
                           ! (Angstroms and Degrees)  !
 --------------------------                            --------------------------
 ! Name  Definition              Value          Derivative Info.                !
 --------------------------------------------------------------------------------
 ! R1    R(1,2)                  1.3831         -DE/DX =    0.0                 !
 ! R2    R(1,6)                  2.2721         -DE/DX =    0.0                 !
 ! R3    R(1,7)                  1.084          -DE/DX =    0.0                 !
 ! R4    R(1,8)                  1.0873         -DE/DX =    0.0                 !
 ! R5    R(2,3)                  1.4072         -DE/DX =    0.0                 !
 ! R6    R(2,9)                  1.0891         -DE/DX =    0.0                 !
 ! R7    R(3,4)                  1.3831         -DE/DX =    0.0                 !
 ! R8    R(3,10)                 1.0891         -DE/DX =    0.0                 !
 ! R9    R(4,5)                  2.2722         -DE/DX =    0.0                 !
 ! R10   R(4,11)                 1.084          -DE/DX =    0.0                 !
 ! R11   R(4,12)                 1.0873         -DE/DX =    0.0                 !
 ! R12   R(5,6)                  1.3861         -DE/DX =    0.0                 !
 ! R13   R(5,11)                 2.4245         -DE/DX =    0.0                 !
 ! R14   R(5,13)                 1.0863         -DE/DX =    0.0                 !
 ! R15   R(5,14)                 1.0842         -DE/DX =    0.0                 !
 ! R16   R(6,7)                  2.4245         -DE/DX =    0.0                 !
 ! R17   R(6,15)                 1.0863         -DE/DX =    0.0                 !
 ! R18   R(6,16)                 1.0842         -DE/DX =    0.0                 !
 ! R19   R(11,13)                2.3794         -DE/DX =    0.0                 !
 ! A1    A(2,1,6)              102.2569         -DE/DX =    0.0                 !
 ! A2    A(2,1,7)              120.6569         -DE/DX =    0.0                 !
 ! A3    A(2,1,8)              120.0327         -DE/DX =    0.0                 !
 ! A4    A(6,1,8)              104.4742         -DE/DX =    0.0                 !
 ! A5    A(7,1,8)              114.4938         -DE/DX =    0.0                 !
 ! A6    A(1,2,3)              122.033          -DE/DX =    0.0                 !
 ! A7    A(1,2,9)              118.6629         -DE/DX =    0.0                 !
 ! A8    A(3,2,9)              117.9149         -DE/DX =    0.0                 !
 ! A9    A(2,3,4)              122.034          -DE/DX =    0.0                 !
 ! A10   A(2,3,10)             117.9141         -DE/DX =    0.0                 !
 ! A11   A(4,3,10)             118.6629         -DE/DX =    0.0                 !
 ! A12   A(3,4,5)              102.2575         -DE/DX =    0.0                 !
 ! A13   A(3,4,11)             120.6577         -DE/DX =    0.0                 !
 ! A14   A(3,4,12)             120.0324         -DE/DX =    0.0                 !
 ! A15   A(5,4,12)             104.4809         -DE/DX =    0.0                 !
 ! A16   A(11,4,12)            114.4934         -DE/DX =    0.0                 !
 ! A17   A(4,5,6)              109.1175         -DE/DX =    0.0                 !
 ! A18   A(4,5,13)              90.7805         -DE/DX =    0.0                 !
 ! A19   A(4,5,14)              91.3269         -DE/DX =    0.0                 !
 ! A20   A(6,5,11)              98.9054         -DE/DX =    0.0                 !
 ! A21   A(6,5,13)             119.9746         -DE/DX =    0.0                 !
 ! A22   A(6,5,14)             120.0539         -DE/DX =    0.0                 !
 ! A23   A(11,5,14)            116.9847         -DE/DX =    0.0                 !
 ! A24   A(13,5,14)            115.1623         -DE/DX =    0.0                 !
 ! A25   A(1,6,5)              109.1202         -DE/DX =    0.0                 !
 ! A26   A(1,6,15)              90.7797         -DE/DX =    0.0                 !
 ! A27   A(1,6,16)              91.3321         -DE/DX =    0.0                 !
 ! A28   A(5,6,7)               98.9023         -DE/DX =    0.0                 !
 ! A29   A(5,6,15)             119.9736         -DE/DX =    0.0                 !
 ! A30   A(5,6,16)             120.0514         -DE/DX =    0.0                 !
 ! A31   A(7,6,15)              74.6315         -DE/DX =    0.0                 !
 ! A32   A(7,6,16)             116.9916         -DE/DX =    0.0                 !
 ! A33   A(15,6,16)            115.1628         -DE/DX =    0.0                 !
 ! A34   A(4,11,13)             85.2559         -DE/DX =    0.0                 !
 ! D1    D(6,1,2,3)            -57.91           -DE/DX =    0.0                 !
 ! D2    D(6,1,2,9)            108.35           -DE/DX =    0.0                 !
 ! D3    D(7,1,2,3)             33.1152         -DE/DX =    0.0                 !
 ! D4    D(7,1,2,9)           -160.6247         -DE/DX =    0.0                 !
 ! D5    D(8,1,2,3)           -172.8098         -DE/DX =    0.0                 !
 ! D6    D(8,1,2,9)             -6.5497         -DE/DX =    0.0                 !
 ! D7    D(2,1,6,5)             49.4817         -DE/DX =    0.0                 !
 ! D8    D(2,1,6,15)           171.7266         -DE/DX =    0.0                 !
 ! D9    D(2,1,6,16)           -73.0809         -DE/DX =    0.0                 !
 ! D10   D(8,1,6,5)            175.2873         -DE/DX =    0.0                 !
 ! D11   D(8,1,6,15)           -62.4678         -DE/DX =    0.0                 !
 ! D12   D(8,1,6,16)            52.7248         -DE/DX =    0.0                 !
 ! D13   D(1,2,3,4)              0.0015         -DE/DX =    0.0                 !
 ! D14   D(1,2,3,10)           166.3609         -DE/DX =    0.0                 !
 ! D15   D(9,2,3,4)           -166.3566         -DE/DX =    0.0                 !
 ! D16   D(9,2,3,10)             0.0028         -DE/DX =    0.0                 !
 ! D17   D(2,3,4,5)             57.9033         -DE/DX =    0.0                 !
 ! D18   D(2,3,4,11)           -33.1131         -DE/DX =    0.0                 !
 ! D19   D(2,3,4,12)           172.812          -DE/DX =    0.0                 !
 ! D20   D(10,3,4,5)          -108.358          -DE/DX =    0.0                 !
 ! D21   D(10,3,4,11)          160.6256         -DE/DX =    0.0                 !
 ! D22   D(10,3,4,12)            6.5507         -DE/DX =    0.0                 !
 ! D23   D(3,4,5,6)            -49.4673         -DE/DX =    0.0                 !
 ! D24   D(3,4,5,13)          -171.713          -DE/DX =    0.0                 !
 ! D25   D(3,4,5,14)            73.0951         -DE/DX =    0.0                 !
 ! D26   D(12,4,5,6)          -175.276          -DE/DX =    0.0                 !
 ! D27   D(12,4,5,13)           62.4784         -DE/DX =    0.0                 !
 ! D28   D(12,4,5,14)          -52.7136         -DE/DX =    0.0                 !
 ! D29   D(3,4,11,13)          122.0841         -DE/DX =    0.0                 !
 ! D30   D(12,4,11,13)         -82.4936         -DE/DX =    0.0                 !
 ! D31   D(4,5,6,1)             -0.0072         -DE/DX =    0.0                 !
 ! D32   D(4,5,6,7)            -25.1848         -DE/DX =    0.0                 !
 ! D33   D(4,5,6,15)          -102.5147         -DE/DX =    0.0                 !
 ! D34   D(4,5,6,16)           103.2306         -DE/DX =    0.0                 !
 ! D35   D(11,5,6,1)            25.1727         -DE/DX =    0.0                 !
 ! D36   D(11,5,6,7)            -0.0048         -DE/DX =    0.0                 !
 ! D37   D(11,5,6,15)          -77.3348         -DE/DX =    0.0                 !
 ! D38   D(11,5,6,16)          128.4106         -DE/DX =    0.0                 !
 ! D39   D(13,5,6,1)           102.5            -DE/DX =    0.0                 !
 ! D40   D(13,5,6,7)            77.3224         -DE/DX =    0.0                 !
 ! D41   D(13,5,6,15)           -0.0076         -DE/DX =    0.0                 !
 ! D42   D(13,5,6,16)         -154.2622         -DE/DX =    0.0                 !
 ! D43   D(14,5,6,1)          -103.2379         -DE/DX =    0.0                 !
 ! D44   D(14,5,6,7)          -128.4154         -DE/DX =    0.0                 !
 ! D45   D(14,5,6,15)          154.2546         -DE/DX =    0.0                 !
 ! D46   D(14,5,6,16)            0.0            -DE/DX =    0.0                 !
 ! D47   D(13,5,11,4)          125.7874         -DE/DX =    0.0                 !
 --------------------------------------------------------------------------------
 GradGradGradGradGradGradGradGradGradGradGradGradGradGradGradGradGradGrad

                          Input orientation:                          
 ---------------------------------------------------------------------
 Center     Atomic      Atomic             Coordinates (Angstroms)
 Number     Number       Type             X           Y           Z
 ---------------------------------------------------------------------
      1          6           0       -0.693868    0.925122    0.048805
      2          6           0        0.042289   -0.175287   -0.351271
      3          6           0        1.449427   -0.177699   -0.335774
      4          6           0        2.180384    0.920173    0.080485
      5          6           0        1.413301    1.236610    2.195741
      6          6           0        0.027334    1.238856    2.180413
      7          1           0       -0.321352    1.929435   -0.117355
      8          1           0       -1.775374    0.854063    0.135505
      9          1           0       -0.467937   -1.130136   -0.469678
     10          1           0        1.958848   -1.134297   -0.442998
     11          1           0        1.815077    1.925763   -0.093733
     12          1           0        3.259471    0.845394    0.190936
     13          1           0        1.956776    2.174351    2.268440
     14          1           0        1.950996    0.363656    2.548291
     15          1           0       -0.514557    2.178357    2.241233
     16          1           0       -0.520813    0.367640    2.520963
 ---------------------------------------------------------------------
                    Distance matrix (angstroms):
                    1          2          3          4          5
     1  C    0.000000
     2  C    1.383072   0.000000
     3  C    2.440866   1.407225   0.000000
     4  C    2.874430   2.440880   1.383074   0.000000
     5  C    3.024321   3.218757   2.900024   2.272191   0.000000
     6  C    2.272072   2.899905   3.218722   3.024381   1.386054
     7  H    1.083984   2.148676   2.761047   2.704891   2.973120
     8  H    1.087301   2.144857   3.418476   3.956693   3.815569
     9  H    2.131656   1.089077   2.145076   3.394120   4.030508
    10  H    3.394109   2.145067   1.089076   2.131657   3.589117
    11  H    2.704885   2.761071   2.148682   1.083979   2.424468
    12  H    3.956696   3.418484   2.144854   1.087299   2.753295
    13  H    3.676039   4.006113   3.545627   2.531819   1.086282
    14  H    3.682116   3.512988   2.976989   2.540157   1.084184
    15  H    2.531697   3.545532   4.006145   3.676216   2.146065
    16  H    2.540138   2.976841   3.512860   3.682077   2.145152
                    6          7          8          9         10
     6  C    0.000000
     7  H    2.424503   0.000000
     8  H    2.753083   1.826073   0.000000
     9  H    3.588927   3.083277   2.452078   0.000000
    10  H    4.030495   3.832990   4.269971   2.426934   0.000000
    11  H    2.973148   2.136563   3.753989   3.833015   3.083281
    12  H    3.815697   3.753995   5.035157   4.269976   2.452075
    13  H    2.146077   3.307850   4.496834   4.929113   4.277740
    14  H    2.145178   3.836782   4.466304   4.146177   3.345405
    15  H    1.086281   2.379543   2.788818   4.277539   4.929149
    16  H    1.084185   3.072411   2.738785   3.345155   4.146034
                   11         12         13         14         15
    11  H    0.000000
    12  H    1.826063   0.000000
    13  H    2.379441   2.789116   0.000000
    14  H    3.072286   2.738850   1.832202   0.000000
    15  H    3.308031   4.497087   2.471486   3.076747   0.000000
    16  H    3.836765   4.466298   3.076754   2.471963   1.832207
                   16
    16  H    0.000000
 Symmetry turned off by external request.
 Stoichiometry    C6H10
 Framework group  C1[X(C6H10)]
 Deg. of freedom    42
 Full point group                 C1      NOp   1
 Rotational constants (GHZ):           4.3402283           3.4582530           2.2555103
 Unable to Open any file for archive entry.
 1|1|UNPC-SKCH-134-020|FOpt|RB3LYP|6-31G(d)|C6H10|AL6323|12-Nov-2025|0|
 |# freq b3lyp/6-31g(d) nosymm opt=(maxcycles=200,noeigen) scf=tight||T
 S Benry DFT||0,1|C,-0.69386751,0.92512218,0.04880472|C,0.04228925,-0.1
 752866,-0.35127127|C,1.4494268,-0.17769886,-0.33577375|C,2.18038397,0.
 92017348,0.08048505|C,1.41330135,1.23660962,2.19574055|C,0.0273335,1.2
 3885628,2.18041258|H,-0.32135237,1.92943532,-0.11735466|H,-1.77537415,
 0.85406308,0.13550483|H,-0.46793658,-1.1301364,-0.46967786|H,1.9588477
 ,-1.13429713,-0.44299845|H,1.81507726,1.92576297,-0.09373324|H,3.25947
 067,0.845394,0.19093576|H,1.95677572,2.17435088,2.26844034|H,1.9509960
 3,0.36365602,2.54829095|H,-0.51455699,2.17835668,2.24123325|H,-0.52081
 298,0.36764027,2.52096304||Version=EM64W-G16RevC.01|HF=-234.5438827|RM
 SD=5.160e-009|RMSF=1.030e-006|Dipole=-0.0014132,0.0750246,0.1359299|Qu
 adrupole=1.3204626,1.6768408,-2.9973033,0.1041769,0.2384531,0.1434913|
 PG=C01 [X(C6H10)]||@
 The archive entry for this job was punched.


 LIVE PURE, SPEAK TRUE, RIGHT WRONG, FOLLOW THE KING...
 ELSE, WHEREFORE BORN......
           IDYLLS OF THE KING, TENNYSON
 Job cpu time:       0 days  0 hours  0 minutes 17.0 seconds.
 Elapsed time:       0 days  0 hours  0 minutes 14.5 seconds.
 File lengths (MBytes):  RWF=     10 Int=      0 D2E=      0 Chk=      2 Scr=      1
 Normal termination of Gaussian 16 at Wed Nov 12 19:49:04 2025.
 Link1:  Proceeding to internal job step number  2.
 --------------------------------------------------------------------
 #N Geom=AllCheck Guess=TCheck SCRF=Check GenChk RB3LYP/6-31G(d) Freq
 --------------------------------------------------------------------
 1/6=200,10=4,11=1,29=7,30=1,38=1,40=1/1,3;
 2/12=2,15=1,40=1/2;
 3/5=1,6=6,7=1,11=2,14=-4,25=1,30=1,70=2,71=2,74=-5,116=1,140=1/1,2,3;
 4/5=101/1;
 5/5=2,32=2,38=6,98=1/2;
 8/6=4,10=90,11=11/1;
 11/6=1,8=1,9=11,15=111,16=1,31=1/1,2,10;
 10/6=1,31=1/2;
 6/7=2,8=2,9=2,10=2,28=1/1;
 7/8=1,10=1,25=1,30=1/1,2,3,16;
 1/6=200,10=4,11=1,30=1/3;
 99//99;
 Structure from the checkpoint file:  "C:\Users\al6323\OneDrive - Imperial College London\Desktop\TSR202511112\Exercise 1\DFT\TS_guess_opt_TS(Berny)_Energy.chk"
 ------------
 TS Benry DFT
 ------------
 Charge =  0 Multiplicity = 1
 Redundant internal coordinates found in file.  (old form).
 C,0,-0.69386751,0.92512218,0.04880472
 C,0,0.04228925,-0.1752866,-0.35127127
 C,0,1.4494268,-0.17769886,-0.33577375
 C,0,2.18038397,0.92017348,0.08048505
 C,0,1.41330135,1.23660962,2.19574055
 C,0,0.0273335,1.23885628,2.18041258
 H,0,-0.32135237,1.92943532,-0.11735466
 H,0,-1.77537415,0.85406308,0.13550483
 H,0,-0.46793658,-1.1301364,-0.46967786
 H,0,1.9588477,-1.13429713,-0.44299845
 H,0,1.81507726,1.92576297,-0.09373324
 H,0,3.25947067,0.845394,0.19093576
 H,0,1.95677572,2.17435088,2.26844034
 H,0,1.95099603,0.36365602,2.54829095
 H,0,-0.51455699,2.17835668,2.24123325
 H,0,-0.52081298,0.36764027,2.52096304
 Recover connectivity data from disk.

 GradGradGradGradGradGradGradGradGradGradGradGradGradGradGradGradGradGrad
 Berny optimization.
 Initialization pass.
                           ----------------------------
                           !    Initial Parameters    !
                           ! (Angstroms and Degrees)  !
 --------------------------                            --------------------------
 ! Name  Definition              Value          Derivative Info.                !
 --------------------------------------------------------------------------------
 ! R1    R(1,2)                  1.3831         calculate D2E/DX2 analytically  !
 ! R2    R(1,6)                  2.2721         calculate D2E/DX2 analytically  !
 ! R3    R(1,7)                  1.084          calculate D2E/DX2 analytically  !
 ! R4    R(1,8)                  1.0873         calculate D2E/DX2 analytically  !
 ! R5    R(2,3)                  1.4072         calculate D2E/DX2 analytically  !
 ! R6    R(2,9)                  1.0891         calculate D2E/DX2 analytically  !
 ! R7    R(3,4)                  1.3831         calculate D2E/DX2 analytically  !
 ! R8    R(3,10)                 1.0891         calculate D2E/DX2 analytically  !
 ! R9    R(4,5)                  2.2722         calculate D2E/DX2 analytically  !
 ! R10   R(4,11)                 1.084          calculate D2E/DX2 analytically  !
 ! R11   R(4,12)                 1.0873         calculate D2E/DX2 analytically  !
 ! R12   R(5,6)                  1.3861         calculate D2E/DX2 analytically  !
 ! R13   R(5,11)                 2.4245         calculate D2E/DX2 analytically  !
 ! R14   R(5,13)                 1.0863         calculate D2E/DX2 analytically  !
 ! R15   R(5,14)                 1.0842         calculate D2E/DX2 analytically  !
 ! R16   R(6,7)                  2.4245         calculate D2E/DX2 analytically  !
 ! R17   R(6,15)                 1.0863         calculate D2E/DX2 analytically  !
 ! R18   R(6,16)                 1.0842         calculate D2E/DX2 analytically  !
 ! R19   R(11,13)                2.3794         calculate D2E/DX2 analytically  !
 ! A1    A(2,1,6)              102.2569         calculate D2E/DX2 analytically  !
 ! A2    A(2,1,7)              120.6569         calculate D2E/DX2 analytically  !
 ! A3    A(2,1,8)              120.0327         calculate D2E/DX2 analytically  !
 ! A4    A(6,1,8)              104.4742         calculate D2E/DX2 analytically  !
 ! A5    A(7,1,8)              114.4938         calculate D2E/DX2 analytically  !
 ! A6    A(1,2,3)              122.033          calculate D2E/DX2 analytically  !
 ! A7    A(1,2,9)              118.6629         calculate D2E/DX2 analytically  !
 ! A8    A(3,2,9)              117.9149         calculate D2E/DX2 analytically  !
 ! A9    A(2,3,4)              122.034          calculate D2E/DX2 analytically  !
 ! A10   A(2,3,10)             117.9141         calculate D2E/DX2 analytically  !
 ! A11   A(4,3,10)             118.6629         calculate D2E/DX2 analytically  !
 ! A12   A(3,4,5)              102.2575         calculate D2E/DX2 analytically  !
 ! A13   A(3,4,11)             120.6577         calculate D2E/DX2 analytically  !
 ! A14   A(3,4,12)             120.0324         calculate D2E/DX2 analytically  !
 ! A15   A(5,4,12)             104.4809         calculate D2E/DX2 analytically  !
 ! A16   A(11,4,12)            114.4934         calculate D2E/DX2 analytically  !
 ! A17   A(4,5,6)              109.1175         calculate D2E/DX2 analytically  !
 ! A18   A(4,5,13)              90.7805         calculate D2E/DX2 analytically  !
 ! A19   A(4,5,14)              91.3269         calculate D2E/DX2 analytically  !
 ! A20   A(6,5,11)              98.9054         calculate D2E/DX2 analytically  !
 ! A21   A(6,5,13)             119.9746         calculate D2E/DX2 analytically  !
 ! A22   A(6,5,14)             120.0539         calculate D2E/DX2 analytically  !
 ! A23   A(11,5,14)            116.9847         calculate D2E/DX2 analytically  !
 ! A24   A(13,5,14)            115.1623         calculate D2E/DX2 analytically  !
 ! A25   A(1,6,5)              109.1202         calculate D2E/DX2 analytically  !
 ! A26   A(1,6,15)              90.7797         calculate D2E/DX2 analytically  !
 ! A27   A(1,6,16)              91.3321         calculate D2E/DX2 analytically  !
 ! A28   A(5,6,7)               98.9023         calculate D2E/DX2 analytically  !
 ! A29   A(5,6,15)             119.9736         calculate D2E/DX2 analytically  !
 ! A30   A(5,6,16)             120.0514         calculate D2E/DX2 analytically  !
 ! A31   A(7,6,15)              74.6315         calculate D2E/DX2 analytically  !
 ! A32   A(7,6,16)             116.9916         calculate D2E/DX2 analytically  !
 ! A33   A(15,6,16)            115.1628         calculate D2E/DX2 analytically  !
 ! A34   A(4,11,13)             85.2559         calculate D2E/DX2 analytically  !
 ! D1    D(6,1,2,3)            -57.91           calculate D2E/DX2 analytically  !
 ! D2    D(6,1,2,9)            108.35           calculate D2E/DX2 analytically  !
 ! D3    D(7,1,2,3)             33.1152         calculate D2E/DX2 analytically  !
 ! D4    D(7,1,2,9)           -160.6247         calculate D2E/DX2 analytically  !
 ! D5    D(8,1,2,3)           -172.8098         calculate D2E/DX2 analytically  !
 ! D6    D(8,1,2,9)             -6.5497         calculate D2E/DX2 analytically  !
 ! D7    D(2,1,6,5)             49.4817         calculate D2E/DX2 analytically  !
 ! D8    D(2,1,6,15)           171.7266         calculate D2E/DX2 analytically  !
 ! D9    D(2,1,6,16)           -73.0809         calculate D2E/DX2 analytically  !
 ! D10   D(8,1,6,5)            175.2873         calculate D2E/DX2 analytically  !
 ! D11   D(8,1,6,15)           -62.4678         calculate D2E/DX2 analytically  !
 ! D12   D(8,1,6,16)            52.7248         calculate D2E/DX2 analytically  !
 ! D13   D(1,2,3,4)              0.0015         calculate D2E/DX2 analytically  !
 ! D14   D(1,2,3,10)           166.3609         calculate D2E/DX2 analytically  !
 ! D15   D(9,2,3,4)           -166.3566         calculate D2E/DX2 analytically  !
 ! D16   D(9,2,3,10)             0.0028         calculate D2E/DX2 analytically  !
 ! D17   D(2,3,4,5)             57.9033         calculate D2E/DX2 analytically  !
 ! D18   D(2,3,4,11)           -33.1131         calculate D2E/DX2 analytically  !
 ! D19   D(2,3,4,12)           172.812          calculate D2E/DX2 analytically  !
 ! D20   D(10,3,4,5)          -108.358          calculate D2E/DX2 analytically  !
 ! D21   D(10,3,4,11)          160.6256         calculate D2E/DX2 analytically  !
 ! D22   D(10,3,4,12)            6.5507         calculate D2E/DX2 analytically  !
 ! D23   D(3,4,5,6)            -49.4673         calculate D2E/DX2 analytically  !
 ! D24   D(3,4,5,13)          -171.713          calculate D2E/DX2 analytically  !
 ! D25   D(3,4,5,14)            73.0951         calculate D2E/DX2 analytically  !
 ! D26   D(12,4,5,6)          -175.276          calculate D2E/DX2 analytically  !
 ! D27   D(12,4,5,13)           62.4784         calculate D2E/DX2 analytically  !
 ! D28   D(12,4,5,14)          -52.7136         calculate D2E/DX2 analytically  !
 ! D29   D(3,4,11,13)          122.0841         calculate D2E/DX2 analytically  !
 ! D30   D(12,4,11,13)         -82.4936         calculate D2E/DX2 analytically  !
 ! D31   D(4,5,6,1)             -0.0072         calculate D2E/DX2 analytically  !
 ! D32   D(4,5,6,7)            -25.1848         calculate D2E/DX2 analytically  !
 ! D33   D(4,5,6,15)          -102.5147         calculate D2E/DX2 analytically  !
 ! D34   D(4,5,6,16)           103.2306         calculate D2E/DX2 analytically  !
 ! D35   D(11,5,6,1)            25.1727         calculate D2E/DX2 analytically  !
 ! D36   D(11,5,6,7)            -0.0048         calculate D2E/DX2 analytically  !
 ! D37   D(11,5,6,15)          -77.3348         calculate D2E/DX2 analytically  !
 ! D38   D(11,5,6,16)          128.4106         calculate D2E/DX2 analytically  !
 ! D39   D(13,5,6,1)           102.5            calculate D2E/DX2 analytically  !
 ! D40   D(13,5,6,7)            77.3224         calculate D2E/DX2 analytically  !
 ! D41   D(13,5,6,15)           -0.0076         calculate D2E/DX2 analytically  !
 ! D42   D(13,5,6,16)         -154.2622         calculate D2E/DX2 analytically  !
 ! D43   D(14,5,6,1)          -103.2379         calculate D2E/DX2 analytically  !
 ! D44   D(14,5,6,7)          -128.4154         calculate D2E/DX2 analytically  !
 ! D45   D(14,5,6,15)          154.2546         calculate D2E/DX2 analytically  !
 ! D46   D(14,5,6,16)            0.0            calculate D2E/DX2 analytically  !
 ! D47   D(13,5,11,4)          125.7874         calculate D2E/DX2 analytically  !
 --------------------------------------------------------------------------------
 Trust Radius=3.00D-01 FncErr=1.00D-07 GrdErr=1.00D-07 EigMax=2.50D+02 EigMin=1.00D-04
 Number of steps in this run=      2 maximum allowed number of steps=      2.
 GradGradGradGradGradGradGradGradGradGradGradGradGradGradGradGradGradGrad

                          Input orientation:                          
 ---------------------------------------------------------------------
 Center     Atomic      Atomic             Coordinates (Angstroms)
 Number     Number       Type             X           Y           Z
 ---------------------------------------------------------------------
      1          6           0       -0.693868    0.925122    0.048805
      2          6           0        0.042289   -0.175287   -0.351271
      3          6           0        1.449427   -0.177699   -0.335774
      4          6           0        2.180384    0.920173    0.080485
      5          6           0        1.413301    1.236610    2.195741
      6          6           0        0.027334    1.238856    2.180413
      7          1           0       -0.321352    1.929435   -0.117355
      8          1           0       -1.775374    0.854063    0.135505
      9          1           0       -0.467937   -1.130136   -0.469678
     10          1           0        1.958848   -1.134297   -0.442998
     11          1           0        1.815077    1.925763   -0.093733
     12          1           0        3.259471    0.845394    0.190936
     13          1           0        1.956776    2.174351    2.268440
     14          1           0        1.950996    0.363656    2.548291
     15          1           0       -0.514557    2.178357    2.241233
     16          1           0       -0.520813    0.367640    2.520963
 ---------------------------------------------------------------------
                    Distance matrix (angstroms):
                    1          2          3          4          5
     1  C    0.000000
     2  C    1.383072   0.000000
     3  C    2.440866   1.407225   0.000000
     4  C    2.874430   2.440880   1.383074   0.000000
     5  C    3.024321   3.218757   2.900024   2.272191   0.000000
     6  C    2.272072   2.899905   3.218722   3.024381   1.386054
     7  H    1.083984   2.148676   2.761047   2.704891   2.973120
     8  H    1.087301   2.144857   3.418476   3.956693   3.815569
     9  H    2.131656   1.089077   2.145076   3.394120   4.030508
    10  H    3.394109   2.145067   1.089076   2.131657   3.589117
    11  H    2.704885   2.761071   2.148682   1.083979   2.424468
    12  H    3.956696   3.418484   2.144854   1.087299   2.753295
    13  H    3.676039   4.006113   3.545627   2.531819   1.086282
    14  H    3.682116   3.512988   2.976989   2.540157   1.084184
    15  H    2.531697   3.545532   4.006145   3.676216   2.146065
    16  H    2.540138   2.976841   3.512860   3.682077   2.145152
                    6          7          8          9         10
     6  C    0.000000
     7  H    2.424503   0.000000
     8  H    2.753083   1.826073   0.000000
     9  H    3.588927   3.083277   2.452078   0.000000
    10  H    4.030495   3.832990   4.269971   2.426934   0.000000
    11  H    2.973148   2.136563   3.753989   3.833015   3.083281
    12  H    3.815697   3.753995   5.035157   4.269976   2.452075
    13  H    2.146077   3.307850   4.496834   4.929113   4.277740
    14  H    2.145178   3.836782   4.466304   4.146177   3.345405
    15  H    1.086281   2.379543   2.788818   4.277539   4.929149
    16  H    1.084185   3.072411   2.738785   3.345155   4.146034
                   11         12         13         14         15
    11  H    0.000000
    12  H    1.826063   0.000000
    13  H    2.379441   2.789116   0.000000
    14  H    3.072286   2.738850   1.832202   0.000000
    15  H    3.308031   4.497087   2.471486   3.076747   0.000000
    16  H    3.836765   4.466298   3.076754   2.471963   1.832207
                   16
    16  H    0.000000
 Symmetry turned off by external request.
 Stoichiometry    C6H10
 Framework group  C1[X(C6H10)]
 Deg. of freedom    42
 Full point group                 C1      NOp   1
 Rotational constants (GHZ):           4.3402283           3.4582530           2.2555103
 Standard basis: 6-31G(d) (6D, 7F)
   110 basis functions,   208 primitive gaussians,   110 cartesian basis functions
    23 alpha electrons       23 beta electrons
       nuclear repulsion energy       223.9819208905 Hartrees.
 NAtoms=   16 NActive=   16 NUniq=   16 SFac= 1.00D+00 NAtFMM=   60 NAOKFM=F Big=F
 Integral buffers will be    131072 words long.
 Raffenetti 2 integral format.
 Two-electron integral symmetry is turned off.
 One-electron integrals computed using PRISM.
 NBasis=   110 RedAO= T EigKep=  2.28D-03  NBF=   110
 NBsUse=   110 1.00D-06 EigRej= -1.00D+00 NBFU=   110
 Initial guess from the checkpoint file:  "C:\Users\al6323\OneDrive - Imperial College London\Desktop\TSR202511112\Exercise 1\DFT\TS_guess_opt_TS(Berny)_Energy.chk"
 B after Tr=     0.000000    0.000000    0.000000
         Rot=    1.000000    0.000000    0.000000    0.000000 Ang=   0.00 deg.
 Requested convergence on RMS density matrix=1.00D-08 within 128 cycles.
 Requested convergence on MAX density matrix=1.00D-06.
 Requested convergence on             energy=1.00D-06.
 No special actions if energy rises.
 SCF Done:  E(RB3LYP) =  -234.543882734     A.U. after    1 cycles
            NFock=  1  Conv=0.29D-08     -V/T= 2.0103
 DoSCS=F DFT=T ScalE2(SS,OS)=  1.000000  1.000000
 Range of M.O.s used for correlation:     1   110
 NBasis=   110 NAE=    23 NBE=    23 NFC=     0 NFV=     0
 NROrb=    110 NOA=    23 NOB=    23 NVA=    87 NVB=    87
 Symmetrizing basis deriv contribution to polar:
 IMax=3 JMax=2 DiffMx= 0.00D+00
 G2DrvN: will do    17 centers at a time, making    1 passes.
 Calling FoFCou, ICntrl=  3107 FMM=F I1Cent=   0 AccDes= 0.00D+00.
 End of G2Drv F.D. properties file   721 does not exist.
 End of G2Drv F.D. properties file   722 does not exist.
 End of G2Drv F.D. properties file   788 does not exist.
          IDoAtm=1111111111111111
          Differentiating once with respect to electric field.
                with respect to dipole field.
          Differentiating once with respect to nuclear coordinates.
 Keep R1 ints in memory in canonical form, NReq=26109378.
          There are    51 degrees of freedom in the 1st order CPHF.  IDoFFX=6 NUNeed=     3.
     48 vectors produced by pass  0 Test12= 3.92D-15 1.96D-09 XBig12= 1.09D+02 6.88D+00.
 AX will form    48 AO Fock derivatives at one time.
     48 vectors produced by pass  1 Test12= 3.92D-15 1.96D-09 XBig12= 1.23D+01 7.05D-01.
     48 vectors produced by pass  2 Test12= 3.92D-15 1.96D-09 XBig12= 7.86D-02 6.86D-02.
     48 vectors produced by pass  3 Test12= 3.92D-15 1.96D-09 XBig12= 9.19D-05 1.88D-03.
     48 vectors produced by pass  4 Test12= 3.92D-15 1.96D-09 XBig12= 5.15D-08 4.91D-05.
     21 vectors produced by pass  5 Test12= 3.92D-15 1.96D-09 XBig12= 3.20D-11 8.42D-07.
      3 vectors produced by pass  6 Test12= 3.92D-15 1.96D-09 XBig12= 1.78D-14 2.20D-08.
 InvSVY:  IOpt=1 It=  1 EMax= 6.22D-15
 Solved reduced A of dimension   264 with    51 vectors.
 Isotropic polarizability for W=    0.000000       69.12 Bohr**3.
 End of Minotr F.D. properties file   721 does not exist.
 End of Minotr F.D. properties file   722 does not exist.
 End of Minotr F.D. properties file   788 does not exist.

 **********************************************************************

            Population analysis using the SCF Density.

 **********************************************************************

 Alpha  occ. eigenvalues --  -10.18530 -10.18529 -10.18097 -10.18038 -10.17570
 Alpha  occ. eigenvalues --  -10.17520  -0.80026  -0.73932  -0.71080  -0.61714
 Alpha  occ. eigenvalues --   -0.57582  -0.51485  -0.48499  -0.45842  -0.42156
 Alpha  occ. eigenvalues --   -0.40123  -0.39990  -0.36126  -0.35004  -0.33746
 Alpha  occ. eigenvalues --   -0.33508  -0.22110  -0.21893
 Alpha virt. eigenvalues --   -0.00859   0.01958   0.09611   0.10981   0.12510
 Alpha virt. eigenvalues --    0.14390   0.14674   0.15217   0.17258   0.20354
 Alpha virt. eigenvalues --    0.20553   0.23971   0.25002   0.29347   0.32424
 Alpha virt. eigenvalues --    0.36491   0.43182   0.46604   0.50501   0.52392
 Alpha virt. eigenvalues --    0.55561   0.57713   0.58425   0.61580   0.62704
 Alpha virt. eigenvalues --    0.64308   0.65792   0.67245   0.67542   0.73026
 Alpha virt. eigenvalues --    0.74529   0.82102   0.85457   0.86438   0.86460
 Alpha virt. eigenvalues --    0.86721   0.88481   0.89386   0.93856   0.95407
 Alpha virt. eigenvalues --    0.96126   0.98970   1.00752   1.05967   1.07041
 Alpha virt. eigenvalues --    1.11172   1.16084   1.23218   1.28853   1.38668
 Alpha virt. eigenvalues --    1.39795   1.49552   1.52973   1.60927   1.61228
 Alpha virt. eigenvalues --    1.73958   1.76495   1.82972   1.92178   1.93226
 Alpha virt. eigenvalues --    1.96102   1.97577   1.99285   2.03562   2.05344
 Alpha virt. eigenvalues --    2.09033   2.13050   2.19524   2.19774   2.25199
 Alpha virt. eigenvalues --    2.27784   2.27831   2.43192   2.52855   2.57659
 Alpha virt. eigenvalues --    2.60458   2.60923   2.67122   2.70070   2.87021
 Alpha virt. eigenvalues --    3.05002   4.12012   4.22897   4.27926   4.28739
 Alpha virt. eigenvalues --    4.43252   4.53694
          Condensed to atoms (all electrons):
               1          2          3          4          5          6
     1  C    5.097539   0.564514  -0.043043  -0.030615  -0.014202   0.090641
     2  C    0.564514   4.789089   0.546456  -0.043042  -0.022228  -0.013618
     3  C   -0.043043   0.546456   4.789078   0.564520  -0.013610  -0.022226
     4  C   -0.030615  -0.043042   0.564520   5.097535   0.090631  -0.014198
     5  C   -0.014202  -0.022228  -0.013610   0.090631   5.023104   0.570255
     6  C    0.090641  -0.013618  -0.022226  -0.014198   0.570255   5.023099
     7  H    0.370666  -0.029616  -0.013393   0.005837  -0.006336  -0.013436
     8  H    0.362285  -0.026897   0.005466   0.000390   0.000938  -0.004599
     9  H   -0.059615   0.369501  -0.045289   0.006652  -0.000100   0.000600
    10  H    0.006652  -0.045290   0.369500  -0.059614   0.000600  -0.000100
    11  H    0.005838  -0.013393  -0.029616   0.370665  -0.013433  -0.006335
    12  H    0.000390   0.005466  -0.026897   0.362286  -0.004597   0.000937
    13  H    0.000868   0.000524   0.000309  -0.008632   0.376821  -0.038185
    14  H    0.000601   0.000448  -0.002513  -0.007003   0.382183  -0.034303
    15  H   -0.008635   0.000309   0.000524   0.000869  -0.038184   0.376820
    16  H   -0.007007  -0.002513   0.000448   0.000601  -0.034305   0.382181
               7          8          9         10         11         12
     1  C    0.370666   0.362285  -0.059615   0.006652   0.005838   0.000390
     2  C   -0.029616  -0.026897   0.369501  -0.045290  -0.013393   0.005466
     3  C   -0.013393   0.005466  -0.045289   0.369500  -0.029616  -0.026897
     4  C    0.005837   0.000390   0.006652  -0.059614   0.370665   0.362286
     5  C   -0.006336   0.000938  -0.000100   0.000600  -0.013433  -0.004597
     6  C   -0.013436  -0.004599   0.000600  -0.000100  -0.006335   0.000937
     7  H    0.564554  -0.043167   0.005452  -0.000012   0.005137  -0.000092
     8  H   -0.043167   0.573319  -0.007310  -0.000159  -0.000092  -0.000007
     9  H    0.005452  -0.007310   0.617441  -0.008002  -0.000012  -0.000159
    10  H   -0.000012  -0.000159  -0.008002   0.617442   0.005452  -0.007310
    11  H    0.005137  -0.000092  -0.000012   0.005452   0.564554  -0.043168
    12  H   -0.000092  -0.000007  -0.000159  -0.007310  -0.043168   0.573319
    13  H    0.000434  -0.000025   0.000006  -0.000044  -0.002769   0.000388
    14  H   -0.000001  -0.000023  -0.000006   0.000399   0.000917  -0.000780
    15  H   -0.002769   0.000387  -0.000044   0.000006   0.000433  -0.000025
    16  H    0.000918  -0.000780   0.000400  -0.000006  -0.000001  -0.000023
              13         14         15         16
     1  C    0.000868   0.000601  -0.008635  -0.007007
     2  C    0.000524   0.000448   0.000309  -0.002513
     3  C    0.000309  -0.002513   0.000524   0.000448
     4  C   -0.008632  -0.007003   0.000869   0.000601
     5  C    0.376821   0.382183  -0.038184  -0.034305
     6  C   -0.038185  -0.034303   0.376820   0.382181
     7  H    0.000434  -0.000001  -0.002769   0.000918
     8  H   -0.000025  -0.000023   0.000387  -0.000780
     9  H    0.000006  -0.000006  -0.000044   0.000400
    10  H   -0.000044   0.000399   0.000006  -0.000006
    11  H   -0.002769   0.000917   0.000433  -0.000001
    12  H    0.000388  -0.000780  -0.000025  -0.000023
    13  H    0.570651  -0.042359  -0.008124   0.004828
    14  H   -0.042359   0.553313   0.004827  -0.007936
    15  H   -0.008124   0.004827   0.570647  -0.042357
    16  H    0.004828  -0.007936  -0.042357   0.553322
 Mulliken charges:
               1
     1  C   -0.336878
     2  C   -0.079710
     3  C   -0.079714
     4  C   -0.336881
     5  C   -0.297536
     6  C   -0.297532
     7  H    0.155824
     8  H    0.140275
     9  H    0.120485
    10  H    0.120484
    11  H    0.155821
    12  H    0.140272
    13  H    0.145310
    14  H    0.152234
    15  H    0.145317
    16  H    0.152231
 Sum of Mulliken charges =   0.00000
 Mulliken charges with hydrogens summed into heavy atoms:
               1
     1  C   -0.040780
     2  C    0.040775
     3  C    0.040770
     4  C   -0.040788
     5  C    0.000008
     6  C    0.000015
 APT charges:
               1
     1  C    0.067058
     2  C   -0.060644
     3  C   -0.060599
     4  C    0.067028
     5  C   -0.008319
     6  C   -0.008303
     7  H   -0.004463
     8  H    0.002107
     9  H    0.005105
    10  H    0.005101
    11  H   -0.004453
    12  H    0.002104
    13  H    0.004293
    14  H   -0.005152
    15  H    0.004304
    16  H   -0.005169
 Sum of APT charges =   0.00000
 APT charges with hydrogens summed into heavy atoms:
               1
     1  C    0.064702
     2  C   -0.055539
     3  C   -0.055497
     4  C    0.064679
     5  C   -0.009177
     6  C   -0.009168
 Electronic spatial extent (au):  <R**2>=            861.9560
 Charge=              0.0000 electrons
 Dipole moment (field-independent basis, Debye):
    X=             -0.0036    Y=              0.1907    Z=              0.3455  Tot=              0.3946
 Quadrupole moment (field-independent basis, Debye-Ang):
   XX=            -35.6333   YY=            -35.1540   ZZ=            -41.4409
   XY=              0.1401   XZ=              0.3207   YZ=              0.1930
 Traceless Quadrupole moment (field-independent basis, Debye-Ang):
   XX=              1.7761   YY=              2.2554   ZZ=             -4.0315
   XY=              0.1401   XZ=              0.3207   YZ=              0.1930
 Octapole moment (field-independent basis, Debye-Ang**2):
  XXX=            -78.7220  YYY=            -73.7995  ZZZ=            -83.8446  XYY=            -25.8575
  XXY=            -25.3279  XXZ=            -22.7321  XZZ=            -30.3997  YZZ=            -30.6624
  YYZ=            -25.3117  XYZ=              0.1969
 Hexadecapole moment (field-independent basis, Debye-Ang**3):
[...]

 Dipole polarizability, Alpha (input orientation).
 (esu units = cm**3 , SI units = C**2 m**2 J**-1)
 Alpha(0;0):
               (au)            (10**-24 esu)      (10**-40 SI)
   iso        0.691167D+02      0.102420D+02      0.113958D+02
   aniso      0.305227D+02      0.452299D+01      0.503251D+01
   xx         0.807426D+02      0.119648D+02      0.133126D+02
   yx        -0.190518D+00     -0.282319D-01     -0.314122D-01
   yy         0.617578D+02      0.915156D+01      0.101825D+02
   zx         0.199361D+00      0.295423D-01      0.328702D-01
   zy         0.143773D+02      0.213050D+01      0.237050D+01
   zz         0.648498D+02      0.960975D+01      0.106923D+02

 ----------------------------------------------------------------------

 Dipole orientation:
     6         -1.30622481          1.48294769          0.93741407
     6          0.07309597          0.03093228         -0.74192185
     6          2.73233895          0.01902314         -0.74267765
     6          4.12560633          1.45856389          0.93589167
     6          2.71386210          0.04722793          4.73746940
     6          0.09462446          0.05880203          4.73799054
     1         -0.60071236          3.29792482          1.57317159
     1         -3.34871014          1.28142494          1.03455794
     1         -0.89731374         -1.44297782         -1.80092776
     1          3.68888177         -1.46347358         -1.80231109
     1          3.43676619          3.27974324          1.57216699
     1          6.16626234          1.23876918          1.03178537
     1          3.74623808          1.53471532          5.70466498
     1          3.73210737         -1.71658369          4.51437215
     1         -0.92414781          1.55523926          5.70579975
     1         -0.93918072         -1.69598719          4.51529554

 Electric dipole moment (dipole orientation):
 (Debye = 10**-18 statcoulomb cm , SI units = C m)
                  (au)            (Debye)         (10**-30 SI)
   Tot        0.155267D+00      0.394649D+00      0.131641D+01
   x          0.000000D+00      0.000000D+00      0.000000D+00
   y          0.000000D+00      0.000000D+00      0.000000D+00
   z          0.155267D+00      0.394649D+00      0.131641D+01

 Dipole polarizability, Alpha (dipole orientation).
 (esu units = cm**3 , SI units = C**2 m**2 J**-1)
 Alpha(0;0):
               (au)            (10**-24 esu)      (10**-40 SI)
   iso        0.691167D+02      0.102420D+02      0.113958D+02
   aniso      0.305227D+02      0.452299D+01      0.503251D+01
   xx         0.807445D+02      0.119651D+02      0.133130D+02
   yx        -0.133977D+00     -0.198533D-01     -0.220898D-01
   yy         0.503141D+02      0.745578D+01      0.829567D+01
   zx         0.270811D-01      0.401300D-02      0.446506D-02
   zy         0.635719D+01      0.942039D+00      0.104816D+01
   zz         0.762916D+02      0.113052D+02      0.125788D+02

 ----------------------------------------------------------------------
 Unable to Open any file for archive entry.
 1|1|UNPC-SKCH-134-020|Freq|RB3LYP|6-31G(d)|C6H10|AL6323|12-Nov-2025|0|
 |#N Geom=AllCheck Guess=TCheck SCRF=Check GenChk RB3LYP/6-31G(d) Freq|
 |TS Benry DFT||0,1|C,-0.69386751,0.92512218,0.04880472|C,0.04228925,-0
 .1752866,-0.35127127|C,1.4494268,-0.17769886,-0.33577375|C,2.18038397,
 0.92017348,0.08048505|C,1.41330135,1.23660962,2.19574055|C,0.0273335,1
 .23885628,2.18041258|H,-0.32135237,1.92943532,-0.11735466|H,-1.7753741
 5,0.85406308,0.13550483|H,-0.46793658,-1.1301364,-0.46967786|H,1.95884
 77,-1.13429713,-0.44299845|H,1.81507726,1.92576297,-0.09373324|H,3.259
 47067,0.845394,0.19093576|H,1.95677572,2.17435088,2.26844034|H,1.95099
 603,0.36365602,2.54829095|H,-0.51455699,2.17835668,2.24123325|H,-0.520
 81298,0.36764027,2.52096304||Version=EM64W-G16RevC.01|HF=-234.5438827|
 RMSD=2.904e-009|RMSF=1.030e-006|ZeroPoint=0.1405297|Thermal=0.1469574|
 ETot=-234.3969253|HTot=-234.3959811|GTot=-234.4329323|Dipole=-0.001412
 6,0.0750248,0.1359302|DipoleDeriv=0.0894299,0.0224947,-0.0296979,-0.01
 20509,0.0513816,0.0265462,0.0623744,0.0423168,0.0603636,-0.001185,0.08
 49015,0.0649228,0.1449046,0.0674109,-0.0349874,-0.1808167,0.0050121,-0
 .2481582,-0.0046101,-0.0847597,-0.0597079,-0.143841,0.0682248,-0.03791
 03,0.186182,0.0025693,-0.245411,0.0900713,-0.023537,0.0304955,0.011278
 8,0.0513903,0.0267018,-0.0616119,0.0420255,0.0596229,0.036308,0.035984
 1,0.08155,-0.0601928,0.0915584,-0.0141311,-0.0154804,-0.0659354,-0.152
 823,0.0377481,-0.0343594,-0.0774308,0.0607088,0.0914315,-0.0125727,0.0
 194499,-0.0667488,-0.1540886,-0.0071889,-0.0680998,0.0086643,-0.024489
 8,-0.0619491,0.0362303,-0.0166304,0.0126162,0.0557504,-0.1226565,0.005
 0306,0.0041507,-0.0041031,0.0519024,0.0087823,-0.0506754,-0.0050123,0.
 0770739,0.00566,-0.0695023,-0.0178829,-0.0843625,-0.1005271,-0.0571641
 ,0.0196302,-0.0061767,0.1101811,0.0062812,0.0692549,0.0153997,0.085239
 9,-0.1010597,-0.0553628,-0.0219378,-0.0045929,0.1100829,-0.0070189,0.0
 676153,-0.0099221,0.0235037,-0.0622608,0.0367845,0.0153069,0.0140529,0
 .0559215,-0.1235886,-0.0043104,-0.008537,0.004509,0.0519075,0.0088965,
 0.0462629,-0.0052924,0.0779931,0.0039666,-0.0555422,-0.0429775,-0.0661
 536,-0.0561875,0.0046343,-0.0589873,-0.0124673,0.0651014,-0.001608,0.0
 24111,-0.054693,0.0471928,-0.0434406,0.0294131,-0.032543,0.0298711,0.0
 295929,0.0021537,0.055614,0.0416172,0.0658325,-0.056562,0.005952,0.057
 5801,-0.0114491,0.0673214,-0.0037629,-0.0248954,0.0540489,-0.0479764,-
 0.0432206,0.0281875,0.0318965,0.0292109,0.0314758|Polar=80.7425528,-0.
 190518,61.7577835,0.1993611,14.3773436,64.8498049|Quadrupole=1.3204652
 ,1.6768397,-2.997305,0.1041781,0.2384542,0.1434926|PG=C01 [X(C6H10)]|N
 Imag=1||0.66595430,-0.03744399,0.68585813,-0.11450604,0.00674137,0.093
 08388,-0.18814474,0.09467069,0.01069583,0.66726416,0.13545215,-0.29934
 623,-0.05038225,0.00388408,0.69015722,0.05843863,-0.07117043,-0.063646
 80,-0.03177485,0.12561140,0.17226056,-0.03554083,0.05016265,0.04962554
 ,-0.31125393,-0.03807438,-0.00196112,0.66559937,0.02267035,0.02352451,
 0.01726931,0.03885958,-0.12499519,-0.00628090,-0.00656753,0.69019122,0
 .00727425,0.00045490,0.00662715,-0.00367407,-0.00712948,-0.05643124,0.
 04307050,0.12540349,0.17396485,-0.00376876,-0.00718451,-0.00233602,-0.
 03450502,-0.02285052,-0.00819446,-0.18734865,-0.13466938,-0.06138815,0
 .66091712,0.00765339,-0.02009485,-0.02383987,-0.04996314,0.02377542,-0
 .00062591,-0.09344979,-0.29855479,-0.07306468,0.03734854,0.68561585,0.
 00295430,-0.02401116,-0.03630937,-0.05047528,0.01694018,0.00536058,-0.
 01358362,-0.05334754,-0.06527787,0.12701417,0.00720827,0.09847621,-0.0
 0320060,-0.03028173,-0.05345849,-0.04558000,0.02381853,0.00544131,0.04
 372570,0.02941040,0.01299466,-0.00800566,-0.03146474,-0.06240284,0.664
 93635,0.00003329,0.00026730,0.00417870,0.00484894,-0.00253986,-0.00518
 052,-0.00914876,-0.00793124,-0.00812659,-0.00225763,-0.00573740,0.0149
 8032,0.01956254,0.63823536,-0.00622625,0.01698559,0.02561238,0.0329196
 5,-0.01702616,-0.00472985,-0.03892850,-0.02705043,-0.02069441,-0.01331
 776,0.03252013,0.04863246,0.13195621,-0.08723216,0.11497176,-0.0094816
 2,0.03074846,0.06120560,0.04305054,-0.02898910,-0.01162519,-0.04481000
 ,-0.02329039,-0.00633899,-0.00436330,0.02991329,0.05279839,-0.37962197
 ,-0.00668695,-0.04886926,0.67022370,0.00193853,-0.00584527,0.01482777,
 0.00914925,-0.00786460,-0.00788585,-0.00458919,-0.00244663,-0.00526854
 ,-0.00011342,0.00016712,0.00399742,0.00742069,-0.10788641,0.00663682,-
 0.01771877,0.63837021,0.01220370,0.03317771,0.05032589,0.04023924,-0.0
 2783864,-0.02010407,-0.03386841,-0.01743571,-0.00560292,0.00561145,0.0
 1763290,0.02689327,0.04207565,0.00633073,-0.07003516,-0.12004597,-0.08
 718865,0.10943234,-0.09322904,-0.09153236,0.02409969,0.01436375,0.0125
 9849,-0.00456794,-0.00321941,-0.00169175,-0.00090012,-0.00066418,0.003
 61891,0.00075489,0.00162729,0.00033750,-0.00182394,-0.00226630,0.00044
 054,-0.00535033,0.09303131,-0.09405028,-0.30190940,0.03910062,-0.01050
 157,-0.02065538,0.00258729,-0.00220736,0.00062164,-0.00092026,-0.00020
 762,0.00056746,-0.00003316,-0.00065874,0.00061385,0.00042533,0.0009414
 1,0.00007010,0.00005821,0.10243423,0.32017578,0.02099268,0.05380449,-0
 .02370741,0.00487915,-0.01777997,0.00071022,-0.00751656,-0.00257347,-0
 .00434396,0.00103313,0.00375781,0.00640226,0.00833560,-0.00009521,-0.0
 0498184,-0.00957662,0.00379802,-0.01901951,-0.02043424,-0.03864234,0.0
 3721393,-0.33719125,-0.02089987,0.02893271,-0.01212034,-0.00445541,-0.
 00022892,0.00041582,0.00241893,0.00202868,0.00012517,0.00025249,-0.000
 28996,-0.00025123,0.00013887,0.00006904,-0.00017270,-0.00032239,0.0006
 3642,-0.00732134,0.00067584,0.00044127,0.35605977,-0.02438710,-0.05943
 802,-0.00033862,0.02762641,0.00544068,-0.00030948,0.00183424,-0.003431
 32,-0.00243569,-0.00053318,-0.00136808,-0.00058212,-0.00071786,0.00007
 582,0.00053957,0.00105823,0.00017536,0.00108988,-0.02763357,0.00070586
 ,0.00127523,0.02157208,0.05591031,0.02163553,0.00180442,-0.03311309,0.
 01229602,0.00220583,0.00149067,-0.00083524,-0.00514989,0.00569503,-0.0
 0150645,0.00095968,-0.00056809,0.00058168,-0.00014021,-0.00159867,-0.0
 0669623,-0.00092573,0.00098134,0.00476286,-0.00054144,0.00083003,-0.02
 989325,0.00035611,0.02973913,0.01011701,0.01765344,0.00038775,-0.11767
 204,-0.11210490,-0.00946221,-0.01242835,-0.03041665,-0.00443708,-0.005
 52838,0.00231096,0.00052133,-0.00029293,0.00014939,0.00039258,0.000309
 35,0.00003627,0.00035698,-0.00100080,0.00314744,0.00208086,0.00098844,
 -0.00020167,-0.00075787,0.12492677,-0.01266347,-0.02134570,-0.00115273
 ,-0.11416602,-0.26610345,-0.03250442,0.00297339,0.00212150,0.00021160,
 0.00004234,0.00124527,-0.00041001,-0.00012604,0.00012570,0.00015567,0.
 00051616,-0.00023346,0.00043916,0.00220518,-0.00237973,-0.00361752,0.0
 0051798,0.00110989,0.00134073,0.12065039,0.28414960,-0.00500994,-0.006
 28022,0.00600721,-0.00557184,-0.03017140,-0.04048927,-0.00379908,0.000
 74098,0.00202551,0.00072221,0.00008110,0.00742580,0.00280714,-0.000134
 26,-0.00131019,-0.00256838,-0.00027318,-0.00209325,0.00238329,-0.00061
 665,0.00594239,-0.00091559,0.00069438,-0.00476403,0.01205749,0.0353510
 8,0.03005912,-0.00550303,-0.00228912,-0.00080759,-0.01250790,0.0304430
 4,0.00411832,-0.11718667,0.11222939,0.00766504,0.00999657,-0.01761803,
 -0.00030314,0.00025738,-0.00003207,-0.00030333,-0.00022339,-0.00014531
 ,-0.00036860,0.00012488,0.00006472,-0.00021062,-0.00074617,0.00131157,
 0.00094960,0.00110839,-0.00027224,0.00020842,0.12458089,-0.00001035,0.
 00125390,-0.00040765,-0.00292703,0.00202667,0.00013189,0.11434102,-0.2
 6688010,-0.03002619,0.01257765,-0.02132846,-0.00087565,-0.00052624,-0.
 00023156,0.00042785,0.00012376,0.00012573,0.00016001,-0.00031766,0.000
 07491,0.00011896,-0.00009886,0.00000605,-0.00009498,0.00026092,0.00108
 060,0.00051583,-0.12085003,0.28497772,-0.00100651,0.00003291,0.0073917
 6,0.00347878,0.00139973,0.00219918,0.00378616,-0.02772656,-0.04020114,
 0.00507571,-0.00668783,0.00610826,0.00261870,-0.00028247,-0.00204252,-
 0.00278252,-0.00012777,-0.00137952,0.00029833,-0.00004456,-0.00083272,
 0.00000271,-0.00002497,0.00039214,-0.00010572,0.00051037,-0.00351922,-
 0.00985789,0.03273961,0.02958259,-0.00065016,-0.00369798,-0.00092704,-
 0.00339410,0.00176502,0.00091699,0.01436316,-0.01233253,0.00487695,-0.
 09160445,0.08961199,-0.02544722,-0.00263144,-0.00051826,0.00572927,0.0
 0179874,-0.00034222,0.00195633,-0.00169770,0.00084539,-0.00011736,0.00
 028330,0.00016616,-0.00001618,0.00012703,0.00031441,-0.00027750,-0.000
 91726,-0.00213008,-0.00253655,0.09144163,0.00021205,0.00058058,-0.0000
 3345,0.00223782,0.00060881,-0.00087453,0.01032260,-0.02064666,0.002799
 70,0.09245035,-0.30255644,0.04121781,-0.00095412,0.00007234,0.00003510
 ,0.00065976,0.00061201,0.00044098,-0.00081911,0.00041771,0.00001669,0.
 00003453,0.00062892,-0.00018551,-0.00006383,0.00007421,-0.00004504,-0.
 00313803,-0.00236106,-0.00067784,-0.10078871,0.32088838,-0.00119829,0.
 00367659,0.00635462,0.00753061,-0.00256128,-0.00415912,-0.00463992,-0.
 01803795,0.00070766,-0.02230697,0.05585918,-0.02471123,0.00997435,0.00
 375186,-0.01869353,-0.00818833,-0.00007630,-0.00515849,0.00003626,0.00
 004206,0.00070842,-0.00013539,-0.00015748,-0.00060794,0.00023205,0.000
 12481,-0.00083459,-0.00224428,-0.00365814,0.00584098,0.02152687,-0.040
 93625,0.03817522,0.00008680,-0.00027886,0.00030146,0.00043108,-0.00231
 802,-0.00215271,-0.01192880,0.00446532,-0.00006786,-0.33577693,0.02180
 964,-0.03558964,-0.00030935,0.00034459,-0.00065992,-0.00023565,-0.0001
 3474,-0.00003792,0.00027948,-0.00002904,0.00015351,-0.00008030,-0.0000
 7618,-0.00008866,-0.00072878,0.00010345,-0.00002754,0.00094754,-0.0005
 4690,0.00104356,-0.00711039,-0.00063691,-0.00061140,0.35443951,0.00054
 069,-0.00136916,-0.00057157,-0.00179349,-0.00341646,-0.00246854,-0.027
 55256,0.00551952,-0.00091762,0.02534201,-0.05959551,0.00031862,-0.0010
 8111,0.00017761,0.00106841,0.00070698,0.00007395,0.00055569,-0.0001615
 1,0.00062953,-0.00016152,0.00007468,0.00039135,0.00014306,-0.00130804,
 0.00001021,-0.00005379,0.00018681,0.00111101,0.00069580,0.02762677,0.0
 0061275,0.00188537,-0.02260547,0.05606195,0.00152407,0.00094851,-0.000
 52897,0.00070089,-0.00520503,0.00566619,-0.01258251,0.00234739,0.00121
 901,-0.02828446,0.00235856,-0.03437209,0.00665939,-0.00094025,0.001118
 06,-0.00054949,-0.00014197,-0.00161072,0.00003520,-0.00018626,-0.00060
 396,0.00007470,0.00014112,0.00057646,-0.00097472,-0.00008943,0.0003707
 0,0.00088835,0.00132651,-0.00472445,-0.00493943,-0.00053929,0.00071194
 ,0.03703689,-0.00024427,0.03120699,-0.00075123,0.00023175,0.00102380,0
 .00091189,-0.00012524,0.00038334,-0.00090394,-0.00039189,-0.00026626,0
 .00101439,0.00153011,0.00232610,-0.12093839,-0.11949867,-0.01689326,-0
 .01424336,-0.02946159,-0.00038082,-0.00003041,0.00000494,-0.00018961,0
 .00005672,0.00004383,-0.00020976,-0.00003168,0.00002094,-0.00007643,0.
 00003457,0.00004242,-0.00009830,0.00017314,0.00032359,-0.00021024,-0.0
 0009867,0.00011720,-0.00005106,0.12952442,0.00048903,0.00021299,0.0004
 3144,0.00011458,-0.00020159,-0.00028239,-0.00032880,0.00040871,-0.0000
 3186,0.00041560,-0.00097270,0.00044366,-0.12388538,-0.27335386,-0.0101
 8552,0.00247823,0.00363565,0.00028658,-0.00008955,-0.00003900,-0.00010
 924,0.00003067,-0.00000468,0.00006244,0.00006517,0.00001867,0.00001931
 ,0.00005145,0.00015703,-0.00010000,-0.00043107,0.00097854,0.00023591,0
 .00022055,-0.00022269,-0.00030989,0.13290704,0.28338738,0.00014235,-0.
 00332813,-0.00534434,-0.00561255,0.00233370,-0.00044961,0.00467915,0.0
 0327480,0.00021658,-0.00143237,-0.01033982,-0.01197539,-0.02679369,-0.
 01296369,-0.02373357,0.00890860,0.00040159,0.00565489,0.00001255,0.000
 01317,0.00055488,-0.00006418,0.00002349,-0.00001801,0.00001395,-0.0000
 1034,0.00037548,0.00014444,-0.00011926,0.00046408,-0.00066016,-0.00092
 335,0.00024210,0.00028626,-0.00006808,0.00034937,0.01291270,0.01256123
 ,0.03088056,-0.00064872,0.00051798,0.00086114,0.00069806,-0.00027582,-
 0.00004311,-0.00086397,-0.00099516,-0.00051334,0.00088025,-0.00094792,
 0.00342230,-0.12169813,0.11095651,-0.05241525,-0.01396162,0.02777934,-
 0.00886095,-0.00002078,0.00002109,0.00006086,0.00003653,0.00005723,-0.
 00022144,-0.00002042,-0.00004326,-0.00008433,0.00009010,0.00003811,-0.
 00006300,-0.00013482,0.00018629,0.00013917,0.00000428,0.00000568,0.000
 02752,0.00876856,-0.01245726,0.00669685,0.13028708,-0.00065543,-0.0008
 6212,-0.00170825,-0.00095724,0.00057445,0.00047489,0.00144902,0.002130
 82,-0.00116319,-0.00055667,-0.00051599,-0.00458155,0.11206633,-0.24945
 230,0.08234802,0.00021035,0.00392669,0.00015102,-0.00000277,-0.0000104
 2,0.00017582,-0.00005064,0.00000900,-0.00009047,-0.00006292,-0.0000135
 1,0.00005000,0.00006178,-0.00001751,0.00022487,-0.00018002,0.00013958,
 -0.00021663,-0.00033767,0.00001143,0.00056312,0.01350849,-0.01678212,0
 .00850109,-0.12410965,0.25836348,-0.00028021,-0.00307160,-0.00462336,-
 0.00508648,0.00205357,0.00096049,0.00581676,0.00420817,0.00135317,-0.0
 0099652,0.00059571,-0.01608510,-0.06296044,0.08469325,-0.05390542,0.00
 804452,0.00066186,0.00592172,0.00017561,-0.00002887,0.00094403,-0.0000
 8341,-0.00014420,-0.00006642,-0.00006198,-0.00002106,0.00020794,0.0000
 8761,-0.00020781,0.00013306,0.00013930,-0.00027961,-0.00007349,0.00026
 315,-0.00005800,0.00069345,0.00246589,-0.00285486,0.00154435,0.0518548
 7,-0.08451335,0.06126194,0.00102150,-0.00130874,-0.00203827,-0.0008038
 8,0.00032374,0.00024396,0.00079637,0.00007063,-0.00035674,-0.00073078,
 -0.00015510,-0.00092122,-0.01395905,0.02950144,-0.00004831,-0.12106365
 ,0.11926410,0.01472033,0.00015211,-0.00030111,0.00020969,-0.00009435,-
 0.00011602,0.00004006,0.00003550,-0.00003934,0.00008855,-0.00003314,-0
 .00002053,0.00006753,-0.00003172,-0.00000583,0.00017684,0.00005042,-0.
 00004453,0.00021158,0.00169944,-0.00034484,-0.00081127,-0.00518600,-0.
 00039615,0.00144389,0.12918471,-0.00043105,-0.00096581,0.00044180,0.00
 033307,0.00040639,-0.00002527,-0.00011202,-0.00020157,-0.00028378,-0.0
 0049515,0.00021533,0.00042407,-0.00242671,0.00354801,0.00023216,0.1235
 8633,-0.27414987,-0.00753280,0.00042772,0.00097736,0.00024487,-0.00021
 442,-0.00022138,-0.00031473,-0.00004878,0.00015733,-0.00010146,-0.0000
 6543,0.00001896,0.00001767,0.00009218,-0.00003935,-0.00010778,-0.00003
 224,-0.00000445,0.00006117,0.00035434,0.00138494,-0.00048091,-0.000749
 90,0.00139627,0.00030295,-0.13265215,0.28425574,0.00168619,-0.01037947
 ,-0.01199670,-0.00469291,0.00330088,0.00011948,0.00565024,0.00231769,-
 0.00033356,-0.00005127,-0.00333324,-0.00536933,-0.00934474,0.00108437,
 0.00545907,0.02461587,-0.01044365,-0.02282047,0.00065934,-0.00092968,0
 .00026430,-0.00029644,-0.00006968,0.00034437,-0.00015435,-0.00011965,0
 .00046318,-0.00002303,-0.00001080,0.00037684,-0.00002741,0.00001321,0.
 00055914,0.00006586,0.00002217,-0.00001220,0.00096118,-0.00049226,-0.0
 0510018,-0.00182867,0.00112148,0.00633492,-0.01071371,0.00969681,0.030
 36575,0.00093036,0.00093218,-0.00306007,-0.00073751,0.00090835,0.00046
 797,0.00058414,0.00023067,0.00003253,-0.00063736,-0.00045059,-0.000778
 57,-0.01405797,-0.02773073,0.00841902,-0.12493877,-0.11320110,0.051112
 92,-0.00012884,-0.00017932,-0.00014173,0.00001195,-0.00000418,-0.00004
 069,0.00009088,-0.00003388,0.00006352,-0.00002275,0.00004379,0.0000790
 2,-0.00001497,-0.00002044,-0.00008133,0.00002976,-0.00005409,0.0002230
 8,-0.00518546,0.00076459,0.00157736,0.00176961,0.00001319,-0.00082257,
 0.00896253,0.01243422,-0.00650615,0.13334440,0.00065218,-0.00052085,-0
 .00455662,-0.00141593,0.00213312,-0.00119722,0.00094745,0.00056958,0.0
 0049819,0.00069160,-0.00086223,-0.00168915,-0.00015581,0.00401664,0.00
 011963,-0.11425775,-0.24873059,0.07967293,0.00018570,0.00013970,-0.000
 21261,0.00032553,0.00001024,0.00057068,-0.00006719,-0.00001713,0.00022
 332,0.00006149,-0.00001389,0.00005105,-0.00000103,-0.00001032,0.000176
 03,0.00005248,0.00000897,-0.00008999,0.00039276,0.00139273,0.00112451,
 0.00001675,0.00110223,-0.00133615,-0.01377557,-0.01677793,0.00822181,0
 .12634735,0.25755975,0.00137554,0.00061451,-0.01613284,-0.00585218,0.0
 0424892,0.00124257,0.00508661,0.00204063,0.00107616,0.00035777,-0.0030
 8200,-0.00463039,-0.00848450,0.00007613,0.00593143,0.06166801,0.082008
 16,-0.05138534,-0.00014144,-0.00028346,-0.00008107,-0.00027838,-0.0000
 5752,0.00068709,-0.00008905,-0.00020826,0.00013324,0.00005671,-0.00002
 018,0.00021068,-0.00019684,-0.00002860,0.00093832,0.00008495,-0.000145
 73,-0.00005978,-0.00169727,0.00032547,0.00633881,0.00096735,-0.0013368
 8,-0.00460128,-0.00231295,-0.00257478,0.00134538,-0.05054432,-0.081576
 40,0.05898702||-0.00000050,-0.00000095,-0.00000004,-0.00000140,-0.0000
 00