 Default is to use a total of   8 processors:
                                8 via shared-memory
                                1 via Linda
 Entering Link 1 = C:\G16W\l1.exe PID=     23556.
  
 Copyright (c) 1988-2019, Gaussian, Inc.  All Rights Reserved.
  
 This is part of the Gaussian(R) 16 program.  It is based on
 the Gaussian(R) 09 system (copyright 2009, Gaussian, Inc.),
 the Gaussian(R) 03 system (copyright 2003, Gaussian, Inc.),
 the Gaussian(R) 98 system (copyright 1998, Gaussian, Inc.),
 the Gaussian(R) 94 system (copyright 1995, Gaussian, Inc.),
 the Gaussian 92(TM) system (copyright 1992, Gaussian, Inc.),
 the Gaussian 90(TM) system (copyright 1990, Gaussian, Inc.),
 the Gaussian 88(TM) system (copyright 1988, Gaussian, Inc.),
 the Gaussian 86(TM) system (copyright 1986, Carnegie Mellon
 University), and the Gaussian 82(TM) system (copyright 1983,
 Carnegie Mellon University). Gaussian is a federally registered
 trademark of Gaussian, Inc.
  
 This software contains proprietary and confidential information,
 including trade secrets, belonging to Gaussian, Inc.
  
 This software is provided under written license and may be
 used, copied, transmitted, or stored only in accord with that
 written license.
  
 The following legend is applicable only to US Government
 contracts under FAR:
  
                    RESTRICTED RIGHTS LEGEND
  
 Use, reproduction and disclosure by the US Government is
 subject to restrictions as set forth in subparagraphs (a)
 and (c) of the Commercial Computer Software - Restricted
 Rights clause in FAR 52.227-19.
  
 Gaussian, Inc.
 340 Quinnipiac St., Bldg. 40, Wallingford CT 06492
  
  
 ---------------------------------------------------------------
 Warning -- This program may not be used in any manner that
 competes with the business of Gaussian, Inc. or will provide
 assistance to any competitor of Gaussian, Inc.  The licensee
 of this program is prohibited from giving any competitor of
 Gaussian, Inc. access to this program.  By using this program,
 the user acknowledges that Gaussian, Inc. is engaged in the
 business of creating and licensing software in the field of
 computational chemistry and represents and warrants to the
 licensee that it is not a competitor of Gaussian, Inc. and that
 it will not use this program in any manner prohibited above.
 ---------------------------------------------------------------
  

 Cite this work as:
 Gaussian 16, Revision C.01,
 M. J. Frisch, G. W. Trucks, H. B. Schlegel, G. E. Scuseria, 
 M. A. Robb, J. R. Cheeseman, G. Scalmani, V. Barone, 
 G. A. Petersson, H. Nakatsuji, X. Li, M. Caricato, A. V. Marenich, 
 J. Bloino, B. G. Janesko, R. Gomperts, B. Mennucci, H. P. Hratchian, 
 J. V. Ortiz, A. F. Izmaylov, J. L. Sonnenberg, D. Williams-Young, 
 F. Ding, F. Lipparini, F. Egidi, J. Goings, B. Peng, A. Petrone, 
 T. Henderson, D. Ranasinghe, V. G. Zakrzewski, J. Gao, N. Rega, 
 G. Zheng, W. Liang, M. Hada, M. Ehara, K. Toyota, R. Fukuda, 
 J. Hasegawa, M. Ishida, T. Nakajima, Y. Honda, O. Kitao, H. Nakai, 
 T. Vreven, K. Throssell, J. A. Montgomery, Jr., J. E. Peralta, 
 F. Ogliaro, M. J. Bearpark, J. J. Heyd, E. N. Brothers, K. N. Kudin, 
 V. N. Staroverov, T. A. Keith, R. Kobayashi, J. Normand, 
 K. Raghavachari, A. P. Rendell, J. C. Burant, S. S. Iyengar, 
 J. Tomasi, M. Cossi, J. M. Millam, M. Klene, C. Adamo, R. Cammi, 
 J. W. Ochterski, R. L. Martin, K. Morokuma, O. Farkas, 
 J. B. Foresman, and D. J. Fox, Gaussian, Inc., Wallingford CT, 2019.
 
 ******************************************
 Gaussian 16:  EM64W-G16RevC.01 30-May-2019
                12-Nov-2025 
 ******************************************
 %chk=C:\Users\al6323\OneDrive - Imperial College London\Desktop\TSR202511112\TS_
 guess_opt_TS(Berny)_IRS_PM6_prep.chk
 Default route: MaxDisk=10GB
 -------------------------------------------------------------
 # opt=(calcfc,tight,ts,noeigentest) freq pm6 nosymm scf=tight
 -------------------------------------------------------------
 1/5=1,7=10,10=4,11=1,18=20,26=1,38=1/1,3;
 2/9=110,12=2,15=1,17=6,18=5,40=1/2;
 3/5=2,25=1,41=3900000,71=2,140=1/1,2,3;
 4/35=1/1;
 5/5=2,32=2,35=1,38=5/2;
 8/6=4,10=90,11=11/1;
 11/6=1,8=1,9=11,15=111,16=1,31=1/1,2,10;
 10/6=1,13=1,31=1/2;
 6/7=2,8=2,9=2,10=2,28=1/1;
 7/10=1,25=1,30=1/1,2,3,16;
 1/5=1,7=10,10=4,11=1,18=20,26=1/3(2);
 2/9=110,15=1/2;
 99//99;
 2/9=110,15=1/2;
 3/5=2,25=1,41=3900000,71=1,135=20/1,2,3;
 4/5=5,16=3,35=1/1;
 5/5=2,32=2,35=1,38=5/2;
 7/30=1/1,2,3,16;
 1/5=1,7=10,11=1,18=20,26=1/3(-5);
 2/9=110,15=1/2;
 6/7=2,8=2,9=2,10=2,19=2,28=1/1;
 99/9=1/99;
 ------------
 TS Benry PM6
 ------------
 Symbolic Z-matrix:
 Charge =  0 Multiplicity = 1
 C                    -0.69387   0.92512   0.0488 
 C                     0.04229  -0.17529  -0.35127 
 C                     1.44943  -0.1777   -0.33577 
 C                     2.18038   0.92017   0.08049 
 C                     1.4133    1.23661   2.19574 
 C                     0.02733   1.23886   2.18041 
 H                    -0.32135   1.92944  -0.11735 
 H                    -1.77537   0.85406   0.1355 
 H                    -0.46794  -1.13014  -0.46968 
 H                     1.95885  -1.1343   -0.443 
 H                     1.81508   1.92576  -0.09373 
 H                     3.25947   0.84539   0.19094 
 H                     1.95678   2.17435   2.26844 
 H                     1.951     0.36366   2.54829 
 H                    -0.51456   2.17836   2.24123 
 H                    -0.52081   0.36764   2.52096 
 
 Add virtual bond connecting atoms C5         and C4         Dist= 4.29D+00.
 Add virtual bond connecting atoms C5         and H11        Dist= 4.58D+00.
 Add virtual bond connecting atoms C6         and C1         Dist= 4.29D+00.
 Add virtual bond connecting atoms C6         and H7         Dist= 4.58D+00.
 Add virtual bond connecting atoms H13        and H11        Dist= 4.50D+00.

 GradGradGradGradGradGradGradGradGradGradGradGradGradGradGradGradGradGrad
 Berny optimization.
 Initialization pass.
                           ----------------------------
                           !    Initial Parameters    !
                           ! (Angstroms and Degrees)  !
 --------------------------                            --------------------------
 ! Name  Definition              Value          Derivative Info.                !
 --------------------------------------------------------------------------------
 ! R1    R(1,2)                  1.3831         calculate D2E/DX2 analytically  !
 ! R2    R(1,6)                  2.2721         calculate D2E/DX2 analytically  !
 ! R3    R(1,7)                  1.084          calculate D2E/DX2 analytically  !
 ! R4    R(1,8)                  1.0873         calculate D2E/DX2 analytically  !
 ! R5    R(2,3)                  1.4072         calculate D2E/DX2 analytically  !
 ! R6    R(2,9)                  1.0891         calculate D2E/DX2 analytically  !
 ! R7    R(3,4)                  1.3831         calculate D2E/DX2 analytically  !
 ! R8    R(3,10)                 1.0891         calculate D2E/DX2 analytically  !
 ! R9    R(4,5)                  2.2722         calculate D2E/DX2 analytically  !
 ! R10   R(4,11)                 1.084          calculate D2E/DX2 analytically  !
 ! R11   R(4,12)                 1.0873         calculate D2E/DX2 analytically  !
 ! R12   R(5,6)                  1.3861         calculate D2E/DX2 analytically  !
 ! R13   R(5,11)                 2.4245         calculate D2E/DX2 analytically  !
 ! R14   R(5,13)                 1.0863         calculate D2E/DX2 analytically  !
 ! R15   R(5,14)                 1.0842         calculate D2E/DX2 analytically  !
 ! R16   R(6,7)                  2.4245         calculate D2E/DX2 analytically  !
 ! R17   R(6,15)                 1.0863         calculate D2E/DX2 analytically  !
 ! R18   R(6,16)                 1.0842         calculate D2E/DX2 analytically  !
 ! R19   R(11,13)                2.3794         calculate D2E/DX2 analytically  !
 ! A1    A(2,1,6)              102.2569         calculate D2E/DX2 analytically  !
 ! A2    A(2,1,7)              120.6569         calculate D2E/DX2 analytically  !
 ! A3    A(2,1,8)              120.0327         calculate D2E/DX2 analytically  !
 ! A4    A(6,1,8)              104.4742         calculate D2E/DX2 analytically  !
 ! A5    A(7,1,8)              114.4938         calculate D2E/DX2 analytically  !
 ! A6    A(1,2,3)              122.033          calculate D2E/DX2 analytically  !
 ! A7    A(1,2,9)              118.6629         calculate D2E/DX2 analytically  !
 ! A8    A(3,2,9)              117.9149         calculate D2E/DX2 analytically  !
 ! A9    A(2,3,4)              122.034          calculate D2E/DX2 analytically  !
 ! A10   A(2,3,10)             117.9141         calculate D2E/DX2 analytically  !
 ! A11   A(4,3,10)             118.6629         calculate D2E/DX2 analytically  !
 ! A12   A(3,4,5)              102.2575         calculate D2E/DX2 analytically  !
 ! A13   A(3,4,11)             120.6577         calculate D2E/DX2 analytically  !
 ! A14   A(3,4,12)             120.0324         calculate D2E/DX2 analytically  !
 ! A15   A(5,4,12)             104.4809         calculate D2E/DX2 analytically  !
 ! A16   A(11,4,12)            114.4934         calculate D2E/DX2 analytically  !
 ! A17   A(4,5,6)              109.1175         calculate D2E/DX2 analytically  !
 ! A18   A(4,5,13)              90.7805         calculate D2E/DX2 analytically  !
 ! A19   A(4,5,14)              91.3269         calculate D2E/DX2 analytically  !
 ! A20   A(6,5,11)              98.9054         calculate D2E/DX2 analytically  !
 ! A21   A(6,5,13)             119.9746         calculate D2E/DX2 analytically  !
 ! A22   A(6,5,14)             120.0539         calculate D2E/DX2 analytically  !
 ! A23   A(11,5,14)            116.9847         calculate D2E/DX2 analytically  !
 ! A24   A(13,5,14)            115.1623         calculate D2E/DX2 analytically  !
 ! A25   A(1,6,5)              109.1202         calculate D2E/DX2 analytically  !
 ! A26   A(1,6,15)              90.7797         calculate D2E/DX2 analytically  !
 ! A27   A(1,6,16)              91.3321         calculate D2E/DX2 analytically  !
 ! A28   A(5,6,7)               98.9023         calculate D2E/DX2 analytically  !
 ! A29   A(5,6,15)             119.9736         calculate D2E/DX2 analytically  !
 ! A30   A(5,6,16)             120.0514         calculate D2E/DX2 analytically  !
 ! A31   A(7,6,15)              74.6315         calculate D2E/DX2 analytically  !
 ! A32   A(7,6,16)             116.9916         calculate D2E/DX2 analytically  !
 ! A33   A(15,6,16)            115.1628         calculate D2E/DX2 analytically  !
 ! A34   A(4,11,13)             85.2559         calculate D2E/DX2 analytically  !
 ! D1    D(6,1,2,3)            -57.91           calculate D2E/DX2 analytically  !
 ! D2    D(6,1,2,9)            108.35           calculate D2E/DX2 analytically  !
 ! D3    D(7,1,2,3)             33.1152         calculate D2E/DX2 analytically  !
 ! D4    D(7,1,2,9)           -160.6247         calculate D2E/DX2 analytically  !
 ! D5    D(8,1,2,3)           -172.8098         calculate D2E/DX2 analytically  !
 ! D6    D(8,1,2,9)             -6.5497         calculate D2E/DX2 analytically  !
 ! D7    D(2,1,6,5)             49.4817         calculate D2E/DX2 analytically  !
 ! D8    D(2,1,6,15)           171.7266         calculate D2E/DX2 analytically  !
 ! D9    D(2,1,6,16)           -73.0809         calculate D2E/DX2 analytically  !
 ! D10   D(8,1,6,5)            175.2873         calculate D2E/DX2 analytically  !
 ! D11   D(8,1,6,15)           -62.4678         calculate D2E/DX2 analytically  !
 ! D12   D(8,1,6,16)            52.7248         calculate D2E/DX2 analytically  !
 ! D13   D(1,2,3,4)              0.0015         calculate D2E/DX2 analytically  !
 ! D14   D(1,2,3,10)           166.3609         calculate D2E/DX2 analytically  !
 ! D15   D(9,2,3,4)           -166.3566         calculate D2E/DX2 analytically  !
 ! D16   D(9,2,3,10)             0.0028         calculate D2E/DX2 analytically  !
 ! D17   D(2,3,4,5)             57.9033         calculate D2E/DX2 analytically  !
 ! D18   D(2,3,4,11)           -33.1131         calculate D2E/DX2 analytically  !
 ! D19   D(2,3,4,12)           172.812          calculate D2E/DX2 analytically  !
 ! D20   D(10,3,4,5)          -108.358          calculate D2E/DX2 analytically  !
 ! D21   D(10,3,4,11)          160.6256         calculate D2E/DX2 analytically  !
 ! D22   D(10,3,4,12)            6.5507         calculate D2E/DX2 analytically  !
 ! D23   D(3,4,5,6)            -49.4673         calculate D2E/DX2 analytically  !
 ! D24   D(3,4,5,13)          -171.713          calculate D2E/DX2 analytically  !
 ! D25   D(3,4,5,14)            73.0951         calculate D2E/DX2 analytically  !
 ! D26   D(12,4,5,6)          -175.276          calculate D2E/DX2 analytically  !
 ! D27   D(12,4,5,13)           62.4784         calculate D2E/DX2 analytically  !
 ! D28   D(12,4,5,14)          -52.7136         calculate D2E/DX2 analytically  !
 ! D29   D(3,4,11,13)          122.0841         calculate D2E/DX2 analytically  !
 ! D30   D(12,4,11,13)         -82.4936         calculate D2E/DX2 analytically  !
 ! D31   D(4,5,6,1)             -0.0072         calculate D2E/DX2 analytically  !
 ! D32   D(4,5,6,7)            -25.1848         calculate D2E/DX2 analytically  !
 ! D33   D(4,5,6,15)          -102.5147         calculate D2E/DX2 analytically  !
 ! D34   D(4,5,6,16)           103.2306         calculate D2E/DX2 analytically  !
 ! D35   D(11,5,6,1)            25.1727         calculate D2E/DX2 analytically  !
 ! D36   D(11,5,6,7)            -0.0048         calculate D2E/DX2 analytically  !
 ! D37   D(11,5,6,15)          -77.3348         calculate D2E/DX2 analytically  !
 ! D38   D(11,5,6,16)          128.4106         calculate D2E/DX2 analytically  !
 ! D39   D(13,5,6,1)           102.5            calculate D2E/DX2 analytically  !
 ! D40   D(13,5,6,7)            77.3224         calculate D2E/DX2 analytically  !
 ! D41   D(13,5,6,15)           -0.0076         calculate D2E/DX2 analytically  !
 ! D42   D(13,5,6,16)         -154.2622         calculate D2E/DX2 analytically  !
 ! D43   D(14,5,6,1)          -103.2379         calculate D2E/DX2 analytically  !
 ! D44   D(14,5,6,7)          -128.4154         calculate D2E/DX2 analytically  !
 ! D45   D(14,5,6,15)          154.2546         calculate D2E/DX2 analytically  !
 ! D46   D(14,5,6,16)            0.0            calculate D2E/DX2 analytically  !
 ! D47   D(13,5,11,4)          125.7874         calculate D2E/DX2 analytically  !
 --------------------------------------------------------------------------------
 Trust Radius=3.00D-01 FncErr=1.00D-07 GrdErr=1.00D-07 EigMax=2.50D+02 EigMin=1.00D-04
 Number of steps in this run=    100 maximum allowed number of steps=    100.
 Search for a saddle point of order  1.
 GradGradGradGradGradGradGradGradGradGradGradGradGradGradGradGradGradGrad

                          Input orientation:                          
 ---------------------------------------------------------------------
 Center     Atomic      Atomic             Coordinates (Angstroms)
 Number     Number       Type             X           Y           Z
 ---------------------------------------------------------------------
      1          6           0       -0.693868    0.925122    0.048805
      2          6           0        0.042289   -0.175287   -0.351271
      3          6           0        1.449427   -0.177699   -0.335774
      4          6           0        2.180384    0.920173    0.080485
      5          6           0        1.413301    1.236610    2.195741
      6          6           0        0.027334    1.238856    2.180413
      7          1           0       -0.321352    1.929435   -0.117355
      8          1           0       -1.775374    0.854063    0.135505
      9          1           0       -0.467937   -1.130136   -0.469678
     10          1           0        1.958848   -1.134297   -0.442998
     11          1           0        1.815077    1.925763   -0.093733
     12          1           0        3.259471    0.845394    0.190936
     13          1           0        1.956776    2.174351    2.268440
     14          1           0        1.950996    0.363656    2.548291
     15          1           0       -0.514557    2.178357    2.241233
     16          1           0       -0.520813    0.367640    2.520963
 ---------------------------------------------------------------------
                    Distance matrix (angstroms):
                    1          2          3          4          5
     1  C    0.000000
     2  C    1.383072   0.000000
     3  C    2.440866   1.407225   0.000000
     4  C    2.874430   2.440880   1.383074   0.000000
     5  C    3.024321   3.218757   2.900024   2.272191   0.000000
     6  C    2.272072   2.899905   3.218722   3.024381   1.386054
     7  H    1.083984   2.148676   2.761047   2.704891   2.973120
     8  H    1.087301   2.144857   3.418476   3.956693   3.815569
     9  H    2.131656   1.089077   2.145076   3.394120   4.030508
    10  H    3.394109   2.145067   1.089076   2.131657   3.589117
    11  H    2.704885   2.761071   2.148682   1.083979   2.424468
    12  H    3.956696   3.418484   2.144854   1.087299   2.753295
    13  H    3.676039   4.006113   3.545627   2.531819   1.086282
    14  H    3.682116   3.512988   2.976989   2.540157   1.084184
    15  H    2.531697   3.545532   4.006145   3.676216   2.146065
    16  H    2.540138   2.976841   3.512860   3.682077   2.145152
                    6          7          8          9         10
     6  C    0.000000
     7  H    2.424503   0.000000
     8  H    2.753083   1.826073   0.000000
     9  H    3.588927   3.083277   2.452078   0.000000
    10  H    4.030495   3.832990   4.269971   2.426934   0.000000
    11  H    2.973148   2.136563   3.753989   3.833015   3.083281
    12  H    3.815697   3.753995   5.035157   4.269976   2.452075
    13  H    2.146077   3.307850   4.496834   4.929113   4.277740
    14  H    2.145178   3.836782   4.466304   4.146177   3.345405
    15  H    1.086281   2.379543   2.788818   4.277539   4.929149
    16  H    1.084185   3.072411   2.738785   3.345155   4.146034
                   11         12         13         14         15
    11  H    0.000000
    12  H    1.826063   0.000000
    13  H    2.379441   2.789116   0.000000
    14  H    3.072286   2.738850   1.832202   0.000000
    15  H    3.308031   4.497087   2.471486   3.076747   0.000000
    16  H    3.836765   4.466298   3.076754   2.471963   1.832207
                   16
    16  H    0.000000
 Symmetry turned off by external request.
 Stoichiometry    C6H10
 Framework group  C1[X(C6H10)]
 Deg. of freedom    42
 Full point group                 C1      NOp   1
 Rotational constants (GHZ):           4.3402283           3.4582530           2.2555103
 Standard basis: VSTO-6G (5D, 7F)
    34 basis functions,   204 primitive gaussians,    34 cartesian basis functions
    17 alpha electrons       17 beta electrons
       nuclear repulsion energy       141.7694514434 Hartrees.
 Integral buffers will be    131072 words long.
 Regular integral format.
 Two-electron integral symmetry is turned off.
 Do NDO integrals.
 One-electron integrals computed using PRISM.
 NBasis=    34 RedAO= F EigKep=  0.00D+00  NBF=    34
 NBsUse=    34 1.00D-04 EigRej=  0.00D+00 NBFU=    34
 Simple Huckel Guess.
 Keep J ints in memory in canonical form, NReq=862358.
 Overlap will be assumed to be unity.
 Requested convergence on RMS density matrix=1.00D-08 within 128 cycles.
 Requested convergence on MAX density matrix=1.00D-06.
 Requested convergence on             energy=1.00D-06.
 No special actions if energy rises.
 SCF Done:  E(RPM6) =  0.113900740636     A.U. after   15 cycles
            NFock= 14  Conv=0.87D-08     -V/T= 1.0023
 Range of M.O.s used for correlation:     1    34
 NBasis=    34 NAE=    17 NBE=    17 NFC=     0 NFV=     0
 NROrb=     34 NOA=    17 NOB=    17 NVA=    17 NVB=    17
 Symmetrizing basis deriv contribution to polar:
 IMax=3 JMax=2 DiffMx= 0.00D+00
 G2DrvN: will do    17 centers at a time, making    1 passes.
 Calling FoFCou, ICntrl=  3107 FMM=F I1Cent=   0 AccDes= 0.00D+00.
 End of G2Drv F.D. properties file   721 does not exist.
 End of G2Drv F.D. properties file   722 does not exist.
 End of G2Drv F.D. properties file   788 does not exist.
          IDoAtm=1111111111111111
          Differentiating once with respect to nuclear coordinates.
          Electric field/nuclear overlap derivatives assumed to be zero.
 Keep J ints in memory in canonical form, NReq=864025.
          There are    51 degrees of freedom in the 1st order CPHF.  IDoFFX=5 NUNeed=    51.
 LinEq1:  Iter=  0 NonCon=    48 RMS=1.63D-02 Max=1.30D-01 NDo=    48
 AX will form    51 AO Fock derivatives at one time.
 LinEq1:  Iter=  1 NonCon=    48 RMS=2.72D-03 Max=3.12D-02 NDo=    51
 LinEq1:  Iter=  2 NonCon=    48 RMS=4.78D-04 Max=4.76D-03 NDo=    51
 LinEq1:  Iter=  3 NonCon=    48 RMS=8.67D-05 Max=6.25D-04 NDo=    51
 LinEq1:  Iter=  4 NonCon=    48 RMS=1.44D-05 Max=1.26D-04 NDo=    51
 LinEq1:  Iter=  5 NonCon=    48 RMS=2.43D-06 Max=2.45D-05 NDo=    51
 LinEq1:  Iter=  6 NonCon=    48 RMS=4.39D-07 Max=3.60D-06 NDo=    51
 LinEq1:  Iter=  7 NonCon=    46 RMS=8.36D-08 Max=9.63D-07 NDo=    51
 LinEq1:  Iter=  8 NonCon=    10 RMS=1.77D-08 Max=1.52D-07 NDo=    51
 LinEq1:  Iter=  9 NonCon=     0 RMS=2.87D-09 Max=1.36D-08 NDo=    10
 Linear equations converged to 1.000D-08 1.000D-07 after     9 iterations.
 End of Minotr F.D. properties file   721 does not exist.
 End of Minotr F.D. properties file   722 does not exist.
 End of Minotr F.D. properties file   788 does not exist.

 **********************************************************************

            Population analysis using the SCF Density.

 **********************************************************************

 Alpha  occ. eigenvalues --   -1.04234  -0.95558  -0.91977  -0.80506  -0.74632
 Alpha  occ. eigenvalues --   -0.65727  -0.61691  -0.58282  -0.53238  -0.50981
 Alpha  occ. eigenvalues --   -0.50305  -0.45551  -0.45204  -0.44167  -0.43244
 Alpha  occ. eigenvalues --   -0.33536  -0.32561
 Alpha virt. eigenvalues --    0.01125   0.03206   0.09048   0.18448   0.19223
 Alpha virt. eigenvalues --    0.21012   0.21154   0.21721   0.21800   0.22489
 Alpha virt. eigenvalues --    0.23032   0.23518   0.23774   0.23960   0.24321
 Alpha virt. eigenvalues --    0.24543   0.24943
          Condensed to atoms (all electrons):
               1          2          3          4          5          6
     1  C    4.275769   0.000000   0.000000   0.000000   0.000000   0.000000
     2  C    0.000000   4.144857   0.000000   0.000000   0.000000   0.000000
     3  C    0.000000   0.000000   4.144835   0.000000   0.000000   0.000000
     4  C    0.000000   0.000000   0.000000   4.275796   0.000000   0.000000
     5  C    0.000000   0.000000   0.000000   0.000000   4.280031   0.000000
     6  C    0.000000   0.000000   0.000000   0.000000   0.000000   4.280026
     7  H    0.000000   0.000000   0.000000   0.000000   0.000000   0.000000
     8  H    0.000000   0.000000   0.000000   0.000000   0.000000   0.000000
     9  H    0.000000   0.000000   0.000000   0.000000   0.000000   0.000000
    10  H    0.000000   0.000000   0.000000   0.000000   0.000000   0.000000
    11  H    0.000000   0.000000   0.000000   0.000000   0.000000   0.000000
    12  H    0.000000   0.000000   0.000000   0.000000   0.000000   0.000000
    13  H    0.000000   0.000000   0.000000   0.000000   0.000000   0.000000
    14  H    0.000000   0.000000   0.000000   0.000000   0.000000   0.000000
    15  H    0.000000   0.000000   0.000000   0.000000   0.000000   0.000000
    16  H    0.000000   0.000000   0.000000   0.000000   0.000000   0.000000
               7          8          9         10         11         12
     1  C    0.000000   0.000000   0.000000   0.000000   0.000000   0.000000
     2  C    0.000000   0.000000   0.000000   0.000000   0.000000   0.000000
     3  C    0.000000   0.000000   0.000000   0.000000   0.000000   0.000000
     4  C    0.000000   0.000000   0.000000   0.000000   0.000000   0.000000
     5  C    0.000000   0.000000   0.000000   0.000000   0.000000   0.000000
     6  C    0.000000   0.000000   0.000000   0.000000   0.000000   0.000000
     7  H    0.850826   0.000000   0.000000   0.000000   0.000000   0.000000
     8  H    0.000000   0.864067   0.000000   0.000000   0.000000   0.000000
     9  H    0.000000   0.000000   0.864148   0.000000   0.000000   0.000000
    10  H    0.000000   0.000000   0.000000   0.864151   0.000000   0.000000
    11  H    0.000000   0.000000   0.000000   0.000000   0.850825   0.000000
    12  H    0.000000   0.000000   0.000000   0.000000   0.000000   0.864066
    13  H    0.000000   0.000000   0.000000   0.000000   0.000000   0.000000
    14  H    0.000000   0.000000   0.000000   0.000000   0.000000   0.000000
    15  H    0.000000   0.000000   0.000000   0.000000   0.000000   0.000000
    16  H    0.000000   0.000000   0.000000   0.000000   0.000000   0.000000
              13         14         15         16
     1  C    0.000000   0.000000   0.000000   0.000000
     2  C    0.000000   0.000000   0.000000   0.000000
     3  C    0.000000   0.000000   0.000000   0.000000
     4  C    0.000000   0.000000   0.000000   0.000000
     5  C    0.000000   0.000000   0.000000   0.000000
     6  C    0.000000   0.000000   0.000000   0.000000
     7  H    0.000000   0.000000   0.000000   0.000000
     8  H    0.000000   0.000000   0.000000   0.000000
     9  H    0.000000   0.000000   0.000000   0.000000
    10  H    0.000000   0.000000   0.000000   0.000000
    11  H    0.000000   0.000000   0.000000   0.000000
    12  H    0.000000   0.000000   0.000000   0.000000
    13  H    0.862759   0.000000   0.000000   0.000000
    14  H    0.000000   0.857542   0.000000   0.000000
    15  H    0.000000   0.000000   0.862756   0.000000
    16  H    0.000000   0.000000   0.000000   0.857544
 Mulliken charges:
               1
     1  C   -0.275769
     2  C   -0.144857
     3  C   -0.144835
     4  C   -0.275796
     5  C   -0.280031
     6  C   -0.280026
     7  H    0.149174
     8  H    0.135933
     9  H    0.135852
    10  H    0.135849
    11  H    0.149175
    12  H    0.135934
    13  H    0.137241
    14  H    0.142458
    15  H    0.137244
    16  H    0.142456
 Sum of Mulliken charges =   0.00000
 Mulliken charges with hydrogens summed into heavy atoms:
               1
     1  C    0.009337
     2  C   -0.009005
     3  C   -0.008986
     4  C    0.009313
     5  C   -0.000333
     6  C   -0.000326
 APT charges:
               1
     1  C   -0.275769
     2  C   -0.144857
     3  C   -0.144835
     4  C   -0.275796
     5  C   -0.280031
     6  C   -0.280026
     7  H    0.149174
     8  H    0.135933
     9  H    0.135852
    10  H    0.135849
    11  H    0.149175
    12  H    0.135934
    13  H    0.137241
    14  H    0.142458
    15  H    0.137244
    16  H    0.142456
 Sum of APT charges =   0.00000
 APT charges with hydrogens summed into heavy atoms:
               1
     1  C    0.009337
     2  C   -0.009005
     3  C   -0.008986
     4  C    0.009313
     5  C   -0.000333
     6  C   -0.000326
 Charge=              0.0000 electrons
 Dipole moment (field-independent basis, Debye):
    X=             -0.0039    Y=              0.2771    Z=              0.3849  Tot=              0.4743
 N-N= 1.417694514434D+02 E-N=-2.122466808229D+02  KE=-5.043653713859D+01
  Exact polarizability:       0.000       0.000       0.000       0.000       0.000       0.000
 Approx polarizability:      60.604      -0.197      39.285       0.353      14.684      30.989
 Calling FoFJK, ICntrl=    100127 FMM=F ISym2X=0 I1Cent= 0 IOpClX= 0 NMat=1 NMatS=1 NMatT=0.
 -------------------------------------------------------------------
 Center     Atomic                   Forces (Hartrees/Bohr)
 Number     Number              X              Y              Z
 -------------------------------------------------------------------
      1        6           0.004611826   -0.017449026   -0.028502392
      2        6          -0.032588535    0.018178808    0.016653913
      3        6           0.032279809    0.018069109    0.017368889
      4        6          -0.004047121   -0.017437763   -0.028602518
      5        6          -0.035478098    0.003244410    0.017264028
      6        6           0.035103521    0.003128457    0.018053771
      7        1          -0.000252926   -0.000199646    0.007005674
      8        1           0.004488093    0.001440620    0.004555446
      9        1          -0.000112866   -0.001636799   -0.001885538
     10        1           0.000149981   -0.001637593   -0.001881902
     11        1           0.000097156   -0.000199721    0.007008681
     12        1          -0.004582453    0.001455720    0.004458650
     13        1           0.001156274   -0.004423936   -0.007264258
     14        1           0.001529788    0.000940635   -0.008455046
     15        1          -0.001011931   -0.004418870   -0.007291395
     16        1          -0.001342518    0.000945595   -0.008486003
 -------------------------------------------------------------------
 Cartesian Forces:  Max     0.035478098 RMS     0.013878607
 FormGI is forming the generalized inverse of G from B-inverse, IUseBI=4.

 GradGradGradGradGradGradGradGradGradGradGradGradGradGradGradGradGradGrad
 Berny optimization.
 Internal  Forces:  Max     0.028598693 RMS     0.005420642
 Search for a saddle point.
 Step number   1 out of a maximum of  100
 All quantities printed in internal units (Hartrees-Bohrs-Radians)
 Swapping is turned off.
 Second derivative matrix not updated -- analytic derivatives used.
 ITU=  0
     Eigenvalues ---   -0.03445   0.00095   0.00512   0.00693   0.00785
     Eigenvalues ---    0.00966   0.01139   0.01346   0.01430   0.01919
     Eigenvalues ---    0.01947   0.02150   0.02313   0.02461   0.02515
     Eigenvalues ---    0.02933   0.03408   0.03923   0.04407   0.05408
     Eigenvalues ---    0.05754   0.05904   0.06626   0.07943   0.08548
     Eigenvalues ---    0.10938   0.11003   0.11900   0.21867   0.22871
     Eigenvalues ---    0.24708   0.25787   0.26434   0.26616   0.26840
     Eigenvalues ---    0.26961   0.27531   0.27706   0.43734   0.53671
     Eigenvalues ---    0.54724   0.63664
 Eigenvectors required to have negative eigenvalues:
                          R2        R9        D3        A34       D4
   1                   -0.59048  -0.54539   0.20256  -0.18471   0.17520
                          D18       D21       R13       D42       D45
   1                   -0.17300  -0.14734  -0.13866   0.13004  -0.12257
 RFO step:  Lambda0=8.942395952D-03 Lambda=-1.07848941D-02.
 Linear search not attempted -- option 19 set.
 Maximum step size (   0.300) exceeded in Quadratic search.
    -- Step size scaled by   0.558
 Iteration  1 RMS(Cart)=  0.04862733 RMS(Int)=  0.00062206
 Iteration  2 RMS(Cart)=  0.00047843 RMS(Int)=  0.00035159
 Iteration  3 RMS(Cart)=  0.00000022 RMS(Int)=  0.00035159
 Variable       Old X    -DE/DX   Delta X   Delta X   Delta X     New X
                                 (Linear)    (Quad)   (Total)
    R1        2.61363  -0.02422   0.00000  -0.00747  -0.00779   2.60584
    R2        4.29359   0.00429   0.00000  -0.18649  -0.18649   4.10711
    R3        2.04843  -0.00043   0.00000   0.00192   0.00213   2.05056
    R4        2.05470  -0.00420   0.00000  -0.00563  -0.00563   2.04908
    R5        2.65927   0.01970   0.00000   0.00720   0.00675   2.66602
    R6        2.05806   0.00169   0.00000   0.00116   0.00116   2.05921
    R7        2.61363  -0.02456   0.00000  -0.00752  -0.00767   2.60596
    R8        2.05806   0.00169   0.00000   0.00119   0.00119   2.05924
    R9        4.29382   0.00369   0.00000  -0.17940  -0.17927   4.11455
   R10        2.04842  -0.00045   0.00000   0.00185   0.00219   2.05061
   R11        2.05470  -0.00420   0.00000  -0.00554  -0.00554   2.04916
   R12        2.61926  -0.02860   0.00000  -0.00840  -0.00795   2.61131
   R13        4.58158   0.00143   0.00000  -0.06072  -0.06089   4.52069
   R14        2.05278  -0.00268   0.00000  -0.00349  -0.00373   2.04905
   R15        2.04881  -0.00275   0.00000  -0.00184  -0.00184   2.04697
   R16        4.58165  -0.00123   0.00000  -0.07640  -0.07644   4.50520
   R17        2.05277  -0.00373   0.00000  -0.00365  -0.00365   2.04912
   R18        2.04881  -0.00275   0.00000  -0.00172  -0.00172   2.04709
   R19        4.49649  -0.00319   0.00000  -0.06151  -0.06128   4.43521
    A1        1.78472  -0.00419   0.00000  -0.03520  -0.03601   1.74871
    A2        2.10586   0.00265   0.00000   0.01008   0.01065   2.11651
    A3        2.09497   0.00166   0.00000   0.00687   0.00589   2.10085
    A4        1.82342  -0.00133   0.00000  -0.02263  -0.02218   1.80123
    A5        1.99829  -0.00075   0.00000  -0.01040  -0.01008   1.98822
    A6        2.12988  -0.00041   0.00000  -0.01118  -0.01144   2.11843
    A7        2.07106   0.00129   0.00000   0.01234   0.01244   2.08349
    A8        2.05800  -0.00058   0.00000   0.00199   0.00199   2.06000
    A9        2.12990  -0.00078   0.00000  -0.01093  -0.01102   2.11888
   A10        2.05799  -0.00043   0.00000   0.00181   0.00172   2.05971
   A11        2.07106   0.00149   0.00000   0.01241   0.01242   2.08348
   A12        1.78473  -0.00358   0.00000  -0.03577  -0.03671   1.74802
   A13        2.10587   0.00201   0.00000   0.00982   0.01056   2.11643
   A14        2.09496   0.00122   0.00000   0.00609   0.00504   2.10000
   A15        1.82354  -0.00129   0.00000  -0.02201  -0.02141   1.80213
   A16        1.99829  -0.00065   0.00000  -0.01137  -0.01110   1.98719
   A17        1.90446   0.00170   0.00000   0.00792   0.00814   1.91260
   A18        1.58442  -0.00248   0.00000  -0.00340  -0.00369   1.58073
   A19        1.59395  -0.00349   0.00000  -0.01179  -0.01172   1.58224
   A20        1.72622   0.00158   0.00000  -0.00060  -0.00051   1.72572
   A21        2.09395   0.00081   0.00000   0.00531   0.00498   2.09893
   A22        2.09534   0.00228   0.00000   0.00724   0.00745   2.10279
   A23        2.04177  -0.00390   0.00000  -0.00208  -0.00237   2.03939
   A24        2.00996  -0.00149   0.00000  -0.01059  -0.01052   1.99944
   A25        1.90451   0.00254   0.00000   0.01143   0.01159   1.91610
   A26        1.58441  -0.00348   0.00000  -0.01033  -0.01060   1.57381
   A27        1.59405  -0.00373   0.00000  -0.01112  -0.01108   1.58297
   A28        1.72617   0.00242   0.00000   0.00032   0.00024   1.72641
   A29        2.09393   0.00098   0.00000   0.00595   0.00575   2.09968
   A30        2.09529   0.00219   0.00000   0.00701   0.00720   2.10249
   A31        1.30257  -0.00319   0.00000  -0.00951  -0.00927   1.29330
   A32        2.04189  -0.00398   0.00000   0.00039   0.00020   2.04209
   A33        2.00997  -0.00142   0.00000  -0.00991  -0.00996   2.00001
   A34        1.48800   0.00032   0.00000  -0.05988  -0.05955   1.42845
    D1       -1.01072  -0.00070   0.00000  -0.02452  -0.02384  -1.03456
    D2        1.89107   0.00071   0.00000  -0.00881  -0.00847   1.88259
    D3        0.57797  -0.00564   0.00000   0.01249   0.01269   0.59066
    D4       -2.80343  -0.00423   0.00000   0.02820   0.02806  -2.77537
    D5       -3.01610   0.00322   0.00000   0.02652   0.02705  -2.98905
    D6       -0.11431   0.00463   0.00000   0.04224   0.04242  -0.07190
    D7        0.86362   0.00193   0.00000   0.03217   0.03225   0.89587
    D8        2.99719   0.00213   0.00000   0.03698   0.03671   3.03391
    D9       -1.27550   0.00050   0.00000   0.02644   0.02631  -1.24919
   D10        3.05934   0.00121   0.00000   0.01293   0.01361   3.07295
   D11       -1.09027   0.00142   0.00000   0.01774   0.01808  -1.07219
   D12        0.92022  -0.00022   0.00000   0.00720   0.00767   0.92789
   D13        0.00003   0.00002   0.00000  -0.00201  -0.00204  -0.00202
   D14        2.90355   0.00156   0.00000   0.01562   0.01523   2.91877
   D15       -2.90347  -0.00162   0.00000  -0.01899  -0.01862  -2.92209
   D16        0.00005  -0.00008   0.00000  -0.00136  -0.00135  -0.00130
   D17        1.01060   0.00117   0.00000   0.02586   0.02515   1.03575
   D18       -0.57793   0.00390   0.00000  -0.01655  -0.01673  -0.59466
   D19        3.01614  -0.00248   0.00000  -0.02522  -0.02564   2.99050
   D20       -1.89120  -0.00013   0.00000   0.00952   0.00911  -1.88209
   D21        2.80345   0.00261   0.00000  -0.03289  -0.03277   2.77067
   D22        0.11433  -0.00378   0.00000  -0.04157  -0.04168   0.07265
   D23       -0.86337  -0.00203   0.00000  -0.02883  -0.02896  -0.89233
   D24       -2.99696  -0.00227   0.00000  -0.03502  -0.03473  -3.03169
   D25        1.27575  -0.00061   0.00000  -0.02401  -0.02387   1.25188
   D26       -3.05914  -0.00112   0.00000  -0.00870  -0.00940  -3.06854
   D27        1.09045  -0.00136   0.00000  -0.01489  -0.01517   1.07528
   D28       -0.92003   0.00030   0.00000  -0.00388  -0.00431  -0.92434
   D29        2.13077  -0.00473   0.00000   0.00025   0.00083   2.13160
   D30       -1.43979   0.00173   0.00000   0.01239   0.01273  -1.42705
   D31       -0.00013  -0.00014   0.00000  -0.00199  -0.00196  -0.00208
   D32       -0.43956  -0.00026   0.00000  -0.01019  -0.00969  -0.44925
   D33       -1.78922   0.00205   0.00000   0.00043   0.00074  -1.78848
   D34        1.80171  -0.00203   0.00000  -0.00478  -0.00443   1.79729
   D35        0.43935  -0.00035   0.00000   0.00540   0.00490   0.44425
   D36       -0.00008  -0.00047   0.00000  -0.00280  -0.00284  -0.00292
   D37       -1.34975   0.00184   0.00000   0.00782   0.00759  -1.34215
   D38        2.24119  -0.00224   0.00000   0.00261   0.00243   2.24361
   D39        1.78896  -0.00172   0.00000   0.00161   0.00132   1.79029
   D40        1.34953  -0.00184   0.00000  -0.00659  -0.00641   1.34312
   D41       -0.00013   0.00047   0.00000   0.00402   0.00402   0.00389
   D42       -2.69238  -0.00361   0.00000  -0.00119  -0.00115  -2.69353
   D43       -1.80184   0.00197   0.00000   0.00391   0.00357  -1.79827
   D44       -2.24127   0.00185   0.00000  -0.00430  -0.00417  -2.24544
   D45        2.69225   0.00416   0.00000   0.00632   0.00626   2.69852
   D46        0.00000   0.00008   0.00000   0.00111   0.00110   0.00110
   D47        2.19540  -0.00130   0.00000  -0.01827  -0.01839   2.17702
         Item               Value     Threshold  Converged?
 Maximum Force            0.028599     0.000015     NO 
 RMS     Force            0.005421     0.000010     NO 
 Maximum Displacement     0.169197     0.000060     NO 
 RMS     Displacement     0.048760     0.000040     NO 
 Predicted change in Energy=-6.823068D-04
 GradGradGradGradGradGradGradGradGradGradGradGradGradGradGradGradGradGrad

                          Input orientation:                          
 ---------------------------------------------------------------------
 Center     Atomic      Atomic             Coordinates (Angstroms)
 Number     Number       Type             X           Y           Z
 ---------------------------------------------------------------------
      1          6           0       -0.680370    0.950653    0.076614
      2          6           0        0.039495   -0.165367   -0.294604
      3          6           0        1.450201   -0.168307   -0.278787
      4          6           0        2.166788    0.945233    0.106206
      5          6           0        1.411868    1.206112    2.131737
      6          6           0        0.030127    1.206306    2.114616
      7          1           0       -0.311551    1.951220   -0.124147
      8          1           0       -1.756764    0.894404    0.194811
      9          1           0       -0.473386   -1.120728   -0.402589
     10          1           0        1.961105   -1.126092   -0.374067
     11          1           0        1.808879    1.947008   -0.107972
     12          1           0        3.240224    0.883749    0.246949
     13          1           0        1.957275    2.138461    2.226505
     14          1           0        1.957162    0.330041    2.461126
     15          1           0       -0.517877    2.138768    2.192176
     16          1           0       -0.523176    0.330540    2.431428
 ---------------------------------------------------------------------
                    Distance matrix (angstroms):
                    1          2          3          4          5
     1  C    0.000000
     2  C    1.378952   0.000000
     3  C    2.432635   1.410798   0.000000
     4  C    2.847317   2.432993   1.379017   0.000000
     5  C    2.943849   3.106686   2.775090   2.177324   0.000000
     6  C    2.173388   2.772348   3.103957   2.944009   1.381847
     7  H    1.085112   2.152262   2.760449   2.684630   2.935025
     8  H    1.084324   2.142239   3.411491   3.924881   3.726804
     9  H    2.136140   1.089689   2.150028   3.390809   3.923159
    10  H    3.390188   2.149859   1.089703   2.136201   3.466972
    11  H    2.687592   2.761825   2.152298   1.085138   2.392246
    12  H    3.924863   3.411538   2.141822   1.084368   2.645606
    13  H    3.604177   3.916822   3.443079   2.441999   1.084308
    14  H    3.609381   3.393660   2.830634   2.442960   1.083210
    15  H    2.431794   3.435662   3.911724   3.603224   2.144158
    16  H    2.440163   2.827326   3.389444   3.608381   2.144956
                    6          7          8          9         10
     6  C    0.000000
     7  H    2.384051   0.000000
     8  H    2.641195   1.818581   0.000000
     9  H    3.464814   3.088784   2.462661   0.000000
    10  H    3.919477   3.833703   4.269494   2.434664   0.000000
    11  H    2.941512   2.120495   3.730075   3.834910   3.088353
    12  H    3.727861   3.727239   4.997271   4.269746   2.461964
    13  H    2.143672   3.272338   4.412431   4.841752   4.173763
    14  H    2.145082   3.802488   4.387247   4.026557   3.187265
    15  H    1.084347   2.333044   2.659464   4.166425   4.836348
    16  H    1.083273   3.033538   2.615748   3.184385   4.020476
                   11         12         13         14         15
    11  H    0.000000
    12  H    1.818031   0.000000
    13  H    2.347011   2.671873   0.000000
    14  H    3.039216   2.618286   1.823576   0.000000
    15  H    3.277383   4.413876   2.475390   3.077279   0.000000
    16  H    3.807887   4.386476   3.076233   2.480516   1.823995
                   16
    16  H    0.000000
 Symmetry turned off by external request.
 Stoichiometry    C6H10
 Framework group  C1[X(C6H10)]
 Deg. of freedom    42
 Full point group                 C1      NOp   1
 Rotational constants (GHZ):           4.3564385           3.7230967           2.3853356
 Standard basis: VSTO-6G (5D, 7F)
    34 basis functions,   204 primitive gaussians,    34 cartesian basis functions
    17 alpha electrons       17 beta electrons
       nuclear repulsion energy       143.1901533737 Hartrees.
 Integral buffers will be    131072 words long.
 Regular integral format.
 Two-electron integral symmetry is turned off.
 Do NDO integrals.
 One-electron integrals computed using PRISM.
 NBasis=    34 RedAO= F EigKep=  0.00D+00  NBF=    34
 NBsUse=    34 1.00D-04 EigRej=  0.00D+00 NBFU=    34
 Initial guess from the checkpoint file:  "C:\Users\al6323\OneDrive - Imperial College London\Desktop\TSR202511112\TS_guess_opt_TS(Berny)_IRS_PM6_prep.chk"
 B after Tr=    -0.000272    0.000556    0.008668
         Rot=    1.000000    0.000336   -0.000036    0.000008 Ang=   0.04 deg.
 Keep J ints in memory in canonical form, NReq=862358.
 Overlap will be assumed to be unity.
 Requested convergence on RMS density matrix=1.00D-08 within 128 cycles.
 Requested convergence on MAX density matrix=1.00D-06.
 Requested convergence on             energy=1.00D-06.
 No special actions if energy rises.
 SCF Done:  E(RPM6) =  0.113217181561     A.U. after   15 cycles
            NFock= 14  Conv=0.21D-08     -V/T= 1.0022
 Calling FoFJK, ICntrl=      2127 FMM=F ISym2X=0 I1Cent= 0 IOpClX= 0 NMat=1 NMatS=1 NMatT=0.
 -------------------------------------------------------------------
 Center     Atomic                   Forces (Hartrees/Bohr)
 Number     Number              X              Y              Z
 -------------------------------------------------------------------
      1        6           0.000949154   -0.006701425   -0.012990920
      2        6          -0.012460002    0.006359395    0.007311850
      3        6           0.012358668    0.006416188    0.007591404
      4        6          -0.000582464   -0.006775979   -0.013157304
      5        6          -0.014327217    0.001806431    0.008270180
      6        6           0.014029098    0.001807265    0.008715797
      7        1          -0.000069084   -0.000050972    0.003722370
      8        1           0.001922981    0.001009852    0.002260738
      9        1           0.000052688   -0.000771840   -0.001327782
     10        1          -0.000019181   -0.000775174   -0.001288948
     11        1          -0.000146516   -0.000097157    0.004115731
     12        1          -0.001998689    0.001045463    0.002383709
     13        1           0.000955265   -0.001932257   -0.003975837
     14        1           0.000833863    0.000269439   -0.004039294
     15        1          -0.000763071   -0.001879089   -0.003576938
     16        1          -0.000735491    0.000269859   -0.004014755
 -------------------------------------------------------------------
 Cartesian Forces:  Max     0.014327217 RMS     0.005800216

 GradGradGradGradGradGradGradGradGradGradGradGradGradGradGradGradGradGrad
 Berny optimization.
 FormGI is forming the generalized inverse of G from B-inverse, IUseBI=4.
 Internal  Forces:  Max     0.010632302 RMS     0.002110555
 Search for a saddle point.
 Step number   2 out of a maximum of  100
 All quantities printed in internal units (Hartrees-Bohrs-Radians)
 Swapping is turned off.
 Update second derivatives using D2CorX and points    1    2
 ITU=  0  0
     Eigenvalues ---   -0.04419   0.00095   0.00507   0.00693   0.00785
     Eigenvalues ---    0.00955   0.01148   0.01345   0.01426   0.01908
     Eigenvalues ---    0.01952   0.02149   0.02331   0.02473   0.02513
     Eigenvalues ---    0.02937   0.03578   0.03920   0.04414   0.05431
     Eigenvalues ---    0.05823   0.05923   0.06686   0.08022   0.08548
     Eigenvalues ---    0.10972   0.11002   0.11898   0.21850   0.22858
     Eigenvalues ---    0.24705   0.25787   0.26433   0.26614   0.26839
     Eigenvalues ---    0.26960   0.27531   0.27706   0.44087   0.53662
     Eigenvalues ---    0.54710   0.63775
 Eigenvectors required to have negative eigenvalues:
                          R2        R9        D3        D4        A34
   1                    0.58570   0.54158  -0.20281  -0.18098   0.17512
                          D18       R13       D21       R16       D42
   1                    0.17236   0.15541   0.15288   0.12736  -0.12698
 RFO step:  Lambda0=1.839420369D-03 Lambda=-2.41663534D-03.
 Linear search not attempted -- option 19 set.
 Maximum step size (   0.300) exceeded in Quadratic search.
    -- Step size scaled by   0.994
 Iteration  1 RMS(Cart)=  0.03373542 RMS(Int)=  0.00029643
 Iteration  2 RMS(Cart)=  0.00026422 RMS(Int)=  0.00013984
 Iteration  3 RMS(Cart)=  0.00000005 RMS(Int)=  0.00013984
 Variable       Old X    -DE/DX   Delta X   Delta X   Delta X     New X
                                 (Linear)    (Quad)   (Total)
    R1        2.60584  -0.00854   0.00000   0.00086   0.00084   2.60668
    R2        4.10711   0.00241   0.00000  -0.13595  -0.13598   3.97112
    R3        2.05056  -0.00019   0.00000   0.00074   0.00056   2.05113
    R4        2.04908  -0.00171   0.00000  -0.00478  -0.00478   2.04429
    R5        2.66602   0.00771   0.00000   0.00101   0.00097   2.66699
    R6        2.05921   0.00078   0.00000  -0.00031  -0.00031   2.05890
    R7        2.60596  -0.00877   0.00000   0.00072   0.00070   2.60666
    R8        2.05924   0.00079   0.00000  -0.00034  -0.00034   2.05890
    R9        4.11455   0.00209   0.00000  -0.14618  -0.14619   3.96836
   R10        2.05061  -0.00018   0.00000   0.00099   0.00077   2.05138
   R11        2.04916  -0.00173   0.00000  -0.00500  -0.00500   2.04416
   R12        2.61131  -0.01063   0.00000  -0.00060  -0.00056   2.61075
   R13        4.52069   0.00033   0.00000  -0.12128  -0.12138   4.39931
   R14        2.04905  -0.00113   0.00000  -0.00310  -0.00321   2.04583
   R15        2.04697  -0.00103   0.00000  -0.00003  -0.00003   2.04694
   R16        4.50520  -0.00098   0.00000  -0.11336  -0.11326   4.39194
   R17        2.04912  -0.00149   0.00000  -0.00315  -0.00315   2.04597
   R18        2.04709  -0.00102   0.00000  -0.00019  -0.00019   2.04690
   R19        4.43521  -0.00185   0.00000  -0.13569  -0.13538   4.29983
    A1        1.74871  -0.00146   0.00000  -0.00579  -0.00585   1.74286
    A2        2.11651   0.00140   0.00000   0.00806   0.00808   2.12459
    A3        2.10085   0.00071   0.00000   0.01010   0.00985   2.11070
    A4        1.80123  -0.00081   0.00000  -0.02112  -0.02090   1.78034
    A5        1.98822  -0.00048   0.00000  -0.00880  -0.00887   1.97935
    A6        2.11843  -0.00035   0.00000  -0.01372  -0.01378   2.10466
    A7        2.08349   0.00087   0.00000   0.01406   0.01387   2.09736
    A8        2.06000  -0.00036   0.00000   0.00613   0.00589   2.06589
    A9        2.11888  -0.00045   0.00000  -0.01426  -0.01432   2.10456
   A10        2.05971  -0.00032   0.00000   0.00645   0.00622   2.06594
   A11        2.08348   0.00093   0.00000   0.01419   0.01399   2.09747
   A12        1.74802  -0.00126   0.00000  -0.00562  -0.00576   1.74226
   A13        2.11643   0.00102   0.00000   0.00630   0.00651   2.12294
   A14        2.10000   0.00052   0.00000   0.01105   0.01077   2.11077
   A15        1.80213  -0.00074   0.00000  -0.02372  -0.02337   1.77876
   A16        1.98719  -0.00035   0.00000  -0.00718  -0.00741   1.97978
   A17        1.91260   0.00066   0.00000   0.00672   0.00685   1.91945
   A18        1.58073  -0.00121   0.00000  -0.01414  -0.01420   1.56653
   A19        1.58224  -0.00164   0.00000  -0.01173  -0.01188   1.57036
   A20        1.72572   0.00059   0.00000  -0.00556  -0.00574   1.71998
   A21        2.09893   0.00049   0.00000   0.01130   0.01117   2.11011
   A22        2.10279   0.00111   0.00000   0.00290   0.00297   2.10575
   A23        2.03939  -0.00179   0.00000   0.00345   0.00366   2.04305
   A24        1.99944  -0.00079   0.00000  -0.00715  -0.00724   1.99220
   A25        1.91610   0.00090   0.00000   0.00238   0.00241   1.91851
   A26        1.57381  -0.00158   0.00000  -0.00816  -0.00810   1.56571
   A27        1.58297  -0.00171   0.00000  -0.01185  -0.01197   1.57100
   A28        1.72641   0.00088   0.00000  -0.00626  -0.00651   1.71990
   A29        2.09968   0.00058   0.00000   0.01020   0.01008   2.10977
   A30        2.10249   0.00107   0.00000   0.00334   0.00342   2.10591
   A31        1.29330  -0.00149   0.00000  -0.00957  -0.00944   1.28386
   A32        2.04209  -0.00177   0.00000   0.00176   0.00197   2.04405
   A33        2.00001  -0.00078   0.00000  -0.00699  -0.00710   1.99291
   A34        1.42845   0.00045   0.00000  -0.01879  -0.01892   1.40952
    D1       -1.03456  -0.00021   0.00000  -0.00583  -0.00564  -1.04021
    D2        1.88259   0.00062   0.00000   0.02865   0.02881   1.91140
    D3        0.59066  -0.00275   0.00000  -0.00296  -0.00297   0.58770
    D4       -2.77537  -0.00192   0.00000   0.03152   0.03148  -2.74388
    D5       -2.98905   0.00151   0.00000   0.02001   0.02017  -2.96888
    D6       -0.07190   0.00234   0.00000   0.05449   0.05462  -0.01728
    D7        0.89587   0.00085   0.00000   0.01489   0.01497   0.91084
    D8        3.03391   0.00102   0.00000   0.02303   0.02303   3.05694
    D9       -1.24919   0.00020   0.00000   0.01582   0.01586  -1.23333
   D10        3.07295   0.00072   0.00000   0.01552   0.01566   3.08861
   D11       -1.07219   0.00089   0.00000   0.02367   0.02371  -1.04848
   D12        0.92789   0.00008   0.00000   0.01645   0.01654   0.94444
   D13       -0.00202  -0.00004   0.00000   0.00022   0.00024  -0.00178
   D14        2.91877   0.00091   0.00000   0.03496   0.03481   2.95358
   D15       -2.92209  -0.00100   0.00000  -0.03485  -0.03466  -2.95675
   D16       -0.00130  -0.00006   0.00000  -0.00011  -0.00008  -0.00138
   D17        1.03575   0.00044   0.00000   0.00761   0.00736   1.04312
   D18       -0.59466   0.00193   0.00000   0.00423   0.00435  -0.59031
   D19        2.99050  -0.00114   0.00000  -0.02091  -0.02105   2.96945
   D20       -1.88209  -0.00036   0.00000  -0.02658  -0.02679  -1.90888
   D21        2.77067   0.00113   0.00000  -0.02996  -0.02980   2.74087
   D22        0.07265  -0.00194   0.00000  -0.05510  -0.05520   0.01745
   D23       -0.89233  -0.00093   0.00000  -0.02034  -0.02036  -0.91269
   D24       -3.03169  -0.00110   0.00000  -0.02818  -0.02803  -3.05972
   D25        1.25188  -0.00026   0.00000  -0.02060  -0.02062   1.23126
   D26       -3.06854  -0.00070   0.00000  -0.02110  -0.02120  -3.08974
   D27        1.07528  -0.00088   0.00000  -0.02895  -0.02887   1.04641
   D28       -0.92434  -0.00004   0.00000  -0.02136  -0.02146  -0.94580
   D29        2.13160  -0.00187   0.00000   0.01588   0.01610   2.14770
   D30       -1.42705   0.00120   0.00000   0.04359   0.04377  -1.38328
   D31       -0.00208  -0.00004   0.00000   0.00284   0.00286   0.00078
   D32       -0.44925  -0.00016   0.00000  -0.00792  -0.00811  -0.45736
   D33       -1.78848   0.00105   0.00000   0.00645   0.00643  -1.78205
   D34        1.79729  -0.00104   0.00000  -0.00883  -0.00891   1.78838
   D35        0.44425  -0.00010   0.00000   0.01328   0.01354   0.45778
   D36       -0.00292  -0.00023   0.00000   0.00251   0.00257  -0.00036
   D37       -1.34215   0.00098   0.00000   0.01689   0.01711  -1.32504
   D38        2.24361  -0.00110   0.00000   0.00161   0.00177   2.24538
   D39        1.79029  -0.00087   0.00000  -0.00481  -0.00482   1.78546
   D40        1.34312  -0.00099   0.00000  -0.01557  -0.01579   1.32733
   D41        0.00389   0.00022   0.00000  -0.00119  -0.00125   0.00264
   D42       -2.69353  -0.00187   0.00000  -0.01647  -0.01659  -2.71012
   D43       -1.79827   0.00103   0.00000   0.01160   0.01170  -1.78658
   D44       -2.24544   0.00090   0.00000   0.00084   0.00073  -2.24471
   D45        2.69852   0.00212   0.00000   0.01521   0.01527   2.71378
   D46        0.00110   0.00003   0.00000  -0.00006  -0.00007   0.00103
   D47        2.17702  -0.00072   0.00000  -0.02913  -0.02919   2.14783
         Item               Value     Threshold  Converged?
 Maximum Force            0.010632     0.000015     NO 
 RMS     Force            0.002111     0.000010     NO 
 Maximum Displacement     0.113383     0.000060     NO 
 RMS     Displacement     0.033756     0.000040     NO 
 Predicted change in Energy=-3.411362D-04
 GradGradGradGradGradGradGradGradGradGradGradGradGradGradGradGradGradGrad

                          Input orientation:                          
 ---------------------------------------------------------------------
 Center     Atomic      Atomic             Coordinates (Angstroms)
 Number     Number       Type             X           Y           Z
 ---------------------------------------------------------------------
      1          6           0       -0.665024    0.957804    0.103006
      2          6           0        0.039350   -0.171249   -0.260083
      3          6           0        1.450558   -0.173638   -0.243319
      4          6           0        2.149832    0.953754    0.134453
      5          6           0        1.412354    1.195740    2.085715
      6          6           0        0.030884    1.198601    2.071185
      7          1           0       -0.289959    1.955359   -0.102726
      8          1           0       -1.736748    0.922615    0.245990
      9          1           0       -0.478372   -1.120794   -0.391957
     10          1           0        1.968080   -1.125081   -0.361577
     11          1           0        1.782774    1.951553   -0.084809
     12          1           0        3.217745    0.915516    0.302453
     13          1           0        1.969310    2.119628    2.176667
     14          1           0        1.959459    0.315684    2.401127
     15          1           0       -0.523727    2.125263    2.148028
     16          1           0       -0.526517    0.321247    2.375847
 ---------------------------------------------------------------------
                    Distance matrix (angstroms):
                    1          2          3          4          5
     1  C    0.000000
     2  C    1.379397   0.000000
     3  C    2.424003   1.411310   0.000000
     4  C    2.815035   2.423928   1.379387   0.000000
     5  C    2.881536   3.042461   2.702047   2.099966   0.000000
     6  C    2.101429   2.703955   3.042276   2.881115   1.381549
     7  H    1.085410   2.157699   2.753506   2.648027   2.874746
     8  H    1.081793   2.146432   3.405895   3.888305   3.657326
     9  H    2.144853   1.089523   2.154059   3.389441   3.883302
    10  H    3.389319   2.154089   1.089522   2.144909   3.418227
    11  H    2.648495   2.752551   2.156833   1.085546   2.328012
    12  H    3.888118   3.405834   2.146409   1.081723   2.553035
    13  H    3.548186   3.861426   3.374093   2.358492   1.082609
    14  H    3.547054   3.317523   2.737062   2.362453   1.083193
    15  H    2.359035   3.374911   3.860219   3.546102   2.148559
    16  H    2.364359   2.740599   3.318700   3.547782   2.146657
                    6          7          8          9         10
     6  C    0.000000
     7  H    2.324115   0.000000
     8  H    2.555784   1.811453   0.000000
     9  H    3.421404   3.095459   2.483144   0.000000
    10  H    3.882082   3.828166   4.276441   2.446645   0.000000
    11  H    2.878257   2.072814   3.681736   3.827066   3.094611
    12  H    3.655767   3.680955   4.954820   4.276686   2.483271
    13  H    2.148700   3.213551   4.346864   4.805134   4.119565
    14  H    2.146580   3.744021   4.321450   3.975903   3.115832
    15  H    1.082683   2.269231   2.556469   4.121949   4.803328
    16  H    1.083174   2.978188   2.522418   3.121304   3.975974
                   11         12         13         14         15
    11  H    0.000000
    12  H    1.811763   0.000000
    13  H    2.275372   2.553654   0.000000
    14  H    2.981134   2.519427   1.817882   0.000000
    15  H    3.214916   4.343759   2.493208   3.082993   0.000000
    16  H    3.747739   4.321067   3.082694   2.486111   1.818346
                   16
    16  H    0.000000
 Symmetry turned off by external request.
 Stoichiometry    C6H10
 Framework group  C1[X(C6H10)]
 Deg. of freedom    42
 Full point group                 C1      NOp   1
 Rotational constants (GHZ):           4.4071411           3.9020060           2.4731912
 Standard basis: VSTO-6G (5D, 7F)
    34 basis functions,   204 primitive gaussians,    34 cartesian basis functions
    17 alpha electrons       17 beta electrons
       nuclear repulsion energy       144.2524001041 Hartrees.
 Integral buffers will be    131072 words long.
 Regular integral format.
 Two-electron integral symmetry is turned off.
 Do NDO integrals.
 One-electron integrals computed using PRISM.
 NBasis=    34 RedAO= F EigKep=  0.00D+00  NBF=    34
 NBsUse=    34 1.00D-04 EigRej=  0.00D+00 NBFU=    34
 Initial guess from the checkpoint file:  "C:\Users\al6323\OneDrive - Imperial College London\Desktop\TSR202511112\TS_guess_opt_TS(Berny)_IRS_PM6_prep.chk"
 B after Tr=     0.000076   -0.008348    0.012743
         Rot=    0.999998    0.002115    0.000033   -0.000008 Ang=   0.24 deg.
 Keep J ints in memory in canonical form, NReq=862358.
 Overlap will be assumed to be unity.
 Requested convergence on RMS density matrix=1.00D-08 within 128 cycles.
 Requested convergence on MAX density matrix=1.00D-06.
 Requested convergence on             energy=1.00D-06.
 No special actions if energy rises.
 SCF Done:  E(RPM6) =  0.112843383310     A.U. after   15 cycles
            NFock= 14  Conv=0.30D-08     -V/T= 1.0022
 Calling FoFJK, ICntrl=      2127 FMM=F ISym2X=0 I1Cent= 0 IOpClX= 0 NMat=1 NMatS=1 NMatT=0.
 -------------------------------------------------------------------
 Center     Atomic                   Forces (Hartrees/Bohr)
 Number     Number              X              Y              Z
 -------------------------------------------------------------------
      1        6          -0.000546572    0.002305630    0.002969637
      2        6           0.003707733   -0.002635015   -0.000770269
      3        6          -0.003760040   -0.002743353   -0.000981989
      4        6           0.000475616    0.002390858    0.002906339
      5        6           0.004234228   -0.000285603   -0.002205669
      6        6          -0.004144095   -0.000232022   -0.002295088
      7        1          -0.000205399    0.000309978   -0.000798832
      8        1          -0.000272046    0.000057635   -0.000270175
      9        1          -0.000021126    0.000028909   -0.000400420
     10        1           0.000021855    0.000023892   -0.000398383
     11        1           0.000242224    0.000320362   -0.000551681
     12        1           0.000329527    0.000075395   -0.000280132
     13        1          -0.000011255    0.000355815    0.000597284
     14        1          -0.000039681   -0.000144018    0.000952932
     15        1          -0.000014394    0.000287482    0.000678514
     16        1           0.000003425   -0.000115943    0.000847931
 -------------------------------------------------------------------
 Cartesian Forces:  Max     0.004234228 RMS     0.001598833

 GradGradGradGradGradGradGradGradGradGradGradGradGradGradGradGradGradGrad
 Berny optimization.
 FormGI is forming the generalized inverse of G from B-inverse, IUseBI=4.
 Internal  Forces:  Max     0.003620192 RMS     0.000674185
 Search for a saddle point.
 Step number   3 out of a maximum of  100
 All quantities printed in internal units (Hartrees-Bohrs-Radians)
 Swapping is turned off.
 Update second derivatives using D2CorX and points    2    3
 ITU=  0  0  0
     Eigenvalues ---   -0.05615   0.00095   0.00553   0.00694   0.00785
     Eigenvalues ---    0.01048   0.01157   0.01349   0.01464   0.01906
     Eigenvalues ---    0.01973   0.02152   0.02340   0.02492   0.02528
     Eigenvalues ---    0.02986   0.03675   0.03926   0.04426   0.05447
     Eigenvalues ---    0.05865   0.05973   0.06733   0.08063   0.08541
     Eigenvalues ---    0.10984   0.11003   0.11895   0.21837   0.22842
     Eigenvalues ---    0.24699   0.25786   0.26433   0.26613   0.26838
     Eigenvalues ---    0.26959   0.27531   0.27705   0.44382   0.53651
     Eigenvalues ---    0.54698   0.63859
 Eigenvectors required to have negative eigenvalues:
                          R2        R9        D3        D4        R13
   1                    0.58071   0.54192  -0.19439  -0.18867   0.18501
                          A34       D18       D21       R16       D42
   1                    0.16128   0.16076   0.15634   0.14616  -0.11686
 RFO step:  Lambda0=1.516956388D-04 Lambda=-1.07144746D-04.
 Linear search not attempted -- option 19 set.
 Iteration  1 RMS(Cart)=  0.00841146 RMS(Int)=  0.00001921
 Iteration  2 RMS(Cart)=  0.00001842 RMS(Int)=  0.00000759
 Iteration  3 RMS(Cart)=  0.00000000 RMS(Int)=  0.00000759
 Variable       Old X    -DE/DX   Delta X   Delta X   Delta X     New X
                                 (Linear)    (Quad)   (Total)
    R1        2.60668   0.00324   0.00000   0.00080   0.00079   2.60747
    R2        3.97112  -0.00088   0.00000   0.03238   0.03238   4.00351
    R3        2.05113   0.00024   0.00000   0.00030   0.00030   2.05142
    R4        2.04429   0.00023   0.00000   0.00025   0.00025   2.04454
    R5        2.66699  -0.00213   0.00000  -0.00021  -0.00022   2.66677
    R6        2.05890   0.00003   0.00000   0.00032   0.00032   2.05922
    R7        2.60666   0.00341   0.00000   0.00077   0.00077   2.60743
    R8        2.05890   0.00003   0.00000   0.00031   0.00031   2.05921
    R9        3.96836  -0.00072   0.00000   0.03736   0.03737   4.00573
   R10        2.05138   0.00021   0.00000  -0.00016  -0.00014   2.05124
   R11        2.04416   0.00028   0.00000   0.00037   0.00037   2.04453
   R12        2.61075   0.00362   0.00000   0.00029   0.00030   2.61105
   R13        4.39931  -0.00020   0.00000   0.01403   0.01402   4.41332
   R14        2.04583   0.00030   0.00000   0.00044   0.00043   2.04627
   R15        2.04694   0.00037   0.00000   0.00029   0.00029   2.04723
   R16        4.39194   0.00009   0.00000   0.02217   0.02217   4.41411
   R17        2.04597   0.00030   0.00000   0.00026   0.00026   2.04623
   R18        2.04690   0.00033   0.00000   0.00030   0.00030   2.04720
   R19        4.29983   0.00014   0.00000   0.00587   0.00587   4.30570
    A1        1.74286   0.00028   0.00000   0.00176   0.00175   1.74462
    A2        2.12459  -0.00008   0.00000   0.00047   0.00047   2.12506
    A3        2.11070  -0.00006   0.00000   0.00017   0.00016   2.11086
    A4        1.78034   0.00005   0.00000   0.00150   0.00151   1.78184
    A5        1.97935  -0.00015   0.00000  -0.00063  -0.00062   1.97873
    A6        2.10466   0.00007   0.00000   0.00279   0.00278   2.10744
    A7        2.09736   0.00003   0.00000  -0.00084  -0.00085   2.09651
    A8        2.06589  -0.00008   0.00000  -0.00078  -0.00079   2.06510
    A9        2.10456   0.00006   0.00000   0.00264   0.00264   2.10720
   A10        2.06594  -0.00008   0.00000  -0.00071  -0.00072   2.06521
   A11        2.09747   0.00003   0.00000  -0.00084  -0.00085   2.09662
   A12        1.74226   0.00023   0.00000   0.00290   0.00288   1.74514
   A13        2.12294   0.00000   0.00000   0.00158   0.00159   2.12453
   A14        2.11077  -0.00002   0.00000   0.00034   0.00032   2.11110
   A15        1.77876   0.00008   0.00000   0.00446   0.00446   1.78322
   A16        1.97978  -0.00018   0.00000  -0.00101  -0.00100   1.97878
   A17        1.91945  -0.00021   0.00000  -0.00243  -0.00242   1.91703
   A18        1.56653   0.00026   0.00000  -0.00181  -0.00183   1.56470
   A19        1.57036   0.00035   0.00000   0.00260   0.00261   1.57297
   A20        1.71998  -0.00015   0.00000   0.00089   0.00090   1.72087
   A21        2.11011  -0.00003   0.00000  -0.00028  -0.00029   2.10982
   A22        2.10575  -0.00016   0.00000   0.00006   0.00007   2.10582
   A23        2.04305   0.00042   0.00000   0.00006   0.00004   2.04310
   A24        1.99220   0.00005   0.00000   0.00103   0.00103   1.99323
   A25        1.91851  -0.00020   0.00000  -0.00060  -0.00060   1.91792
   A26        1.56571   0.00031   0.00000  -0.00269  -0.00269   1.56301
   A27        1.57100   0.00030   0.00000   0.00200   0.00199   1.57299
   A28        1.71990  -0.00015   0.00000   0.00159   0.00158   1.72149
   A29        2.10977  -0.00007   0.00000   0.00017   0.00016   2.10993
   A30        2.10591  -0.00013   0.00000  -0.00007  -0.00007   2.10584
   A31        1.28386   0.00021   0.00000  -0.00232  -0.00232   1.28154
   A32        2.04405   0.00035   0.00000  -0.00092  -0.00092   2.04314
   A33        1.99291   0.00005   0.00000   0.00047   0.00048   1.99339
   A34        1.40952  -0.00011   0.00000   0.01275   0.01277   1.42229
    D1       -1.04021  -0.00007   0.00000  -0.00110  -0.00108  -1.04129
    D2        1.91140   0.00007   0.00000   0.00598   0.00599   1.91739
    D3        0.58770   0.00058   0.00000  -0.00415  -0.00414   0.58355
    D4       -2.74388   0.00072   0.00000   0.00293   0.00293  -2.74095
    D5       -2.96888  -0.00031   0.00000  -0.00426  -0.00425  -2.97313
    D6       -0.01728  -0.00017   0.00000   0.00282   0.00282  -0.01445
    D7        0.91084  -0.00011   0.00000  -0.00228  -0.00227   0.90856
    D8        3.05694  -0.00009   0.00000  -0.00339  -0.00339   3.05355
    D9       -1.23333  -0.00005   0.00000  -0.00292  -0.00292  -1.23625
   D10        3.08861  -0.00005   0.00000  -0.00089  -0.00088   3.08772
   D11       -1.04848  -0.00004   0.00000  -0.00200  -0.00200  -1.05048
   D12        0.94444   0.00001   0.00000  -0.00153  -0.00153   0.94291
   D13       -0.00178   0.00004   0.00000   0.00302   0.00302   0.00124
   D14        2.95358   0.00017   0.00000   0.00953   0.00953   2.96311
   D15       -2.95675  -0.00011   0.00000  -0.00392  -0.00391  -2.96066
   D16       -0.00138   0.00002   0.00000   0.00259   0.00259   0.00121
   D17        1.04312  -0.00002   0.00000  -0.00383  -0.00384   1.03928
   D18       -0.59031  -0.00038   0.00000   0.00625   0.00624  -0.58407
   D19        2.96945   0.00023   0.00000   0.00386   0.00385   2.97330
   D20       -1.90888  -0.00014   0.00000  -0.01048  -0.01048  -1.91937
   D21        2.74087  -0.00050   0.00000  -0.00040  -0.00040   2.74047
   D22        0.01745   0.00011   0.00000  -0.00279  -0.00279   0.01466
   D23       -0.91269   0.00014   0.00000   0.00535   0.00534  -0.90734
   D24       -3.05972   0.00011   0.00000   0.00700   0.00699  -3.05273
   D25        1.23126   0.00006   0.00000   0.00597   0.00597   1.23723
   D26       -3.08974   0.00004   0.00000   0.00229   0.00228  -3.08746
   D27        1.04641   0.00002   0.00000   0.00394   0.00393   1.05034
   D28       -0.94580  -0.00003   0.00000   0.00291   0.00291  -0.94289
   D29        2.14770   0.00039   0.00000  -0.00634  -0.00633   2.14137
   D30       -1.38328  -0.00015   0.00000  -0.00386  -0.00386  -1.38714
   D31        0.00078   0.00002   0.00000  -0.00138  -0.00137  -0.00059
   D32       -0.45736  -0.00005   0.00000   0.00059   0.00059  -0.45676
   D33       -1.78205  -0.00020   0.00000   0.00236   0.00237  -1.77967
   D34        1.78838   0.00020   0.00000   0.00070   0.00071   1.78909
   D35        0.45778   0.00012   0.00000  -0.00213  -0.00215   0.45564
   D36       -0.00036   0.00005   0.00000  -0.00017  -0.00018  -0.00054
   D37       -1.32504  -0.00011   0.00000   0.00161   0.00160  -1.32345
   D38        2.24538   0.00030   0.00000  -0.00006  -0.00007   2.24532
   D39        1.78546   0.00018   0.00000  -0.00550  -0.00550   1.77996
   D40        1.32733   0.00012   0.00000  -0.00354  -0.00354   1.32379
   D41        0.00264  -0.00004   0.00000  -0.00176  -0.00176   0.00088
   D42       -2.71012   0.00036   0.00000  -0.00342  -0.00342  -2.71354
   D43       -1.78658  -0.00020   0.00000  -0.00304  -0.00304  -1.78961
   D44       -2.24471  -0.00027   0.00000  -0.00107  -0.00108  -2.24579
   D45        2.71378  -0.00042   0.00000   0.00071   0.00070   2.71449
   D46        0.00103  -0.00002   0.00000  -0.00096  -0.00096   0.00007
   D47        2.14783   0.00024   0.00000   0.00639   0.00640   2.15423
         Item               Value     Threshold  Converged?
 Maximum Force            0.003620     0.000015     NO 
 RMS     Force            0.000674     0.000010     NO 
 Maximum Displacement     0.034109     0.000060     NO 
 RMS     Displacement     0.008417     0.000040     NO 
 Predicted change in Energy= 2.240245D-05
 GradGradGradGradGradGradGradGradGradGradGradGradGradGradGradGradGradGrad

                          Input orientation:                          
 ---------------------------------------------------------------------
 Center     Atomic      Atomic             Coordinates (Angstroms)
 Number     Number       Type             X           Y           Z
 ---------------------------------------------------------------------
      1          6           0       -0.667800    0.954673    0.097745
      2          6           0        0.039437   -0.173234   -0.264926
      3          6           0        1.450551   -0.175771   -0.250161
      4          6           0        2.153797    0.949276    0.128716
      5          6           0        1.412034    1.200555    2.098472
      6          6           0        0.030420    1.202521    2.082530
      7          1           0       -0.293948    1.953377   -0.105431
      8          1           0       -1.740020    0.917952    0.237599
      9          1           0       -0.477832   -1.122486   -0.401983
     10          1           0        1.967277   -1.126656   -0.377538
     11          1           0        1.787457    1.949173   -0.081635
     12          1           0        3.222731    0.909034    0.290913
     13          1           0        1.968231    2.125798    2.182785
     14          1           0        1.959475    0.322436    2.419177
     15          1           0       -0.525022    2.129337    2.153198
     16          1           0       -0.526786    0.326015    2.390540
 ---------------------------------------------------------------------
                    Distance matrix (angstroms):
                    1          2          3          4          5
     1  C    0.000000
     2  C    1.379815   0.000000
     3  C    2.426181   1.411194   0.000000
     4  C    2.821772   2.426004   1.379794   0.000000
     5  C    2.896390   3.058916   2.722469   2.119739   0.000000
     6  C    2.118564   2.720907   3.059071   2.896594   1.381707
     7  H    1.085567   2.158485   2.756355   2.656030   2.886919
     8  H    1.081926   2.147018   3.407915   3.895464   3.671261
     9  H    2.144855   1.089693   2.153597   3.391063   3.901331
    10  H    3.391380   2.153663   1.089685   2.144895   3.443085
    11  H    2.655088   2.755681   2.158076   1.085470   2.335431
    12  H    3.895591   3.407876   2.147134   1.081919   2.575049
    13  H    3.559156   3.872607   3.388870   2.374414   1.082838
    14  H    3.562491   3.337161   2.762712   2.382625   1.083346
    15  H    2.371731   3.386410   3.872021   3.559093   2.148910
    16  H    2.381598   2.760681   3.336908   3.562278   2.146892
                    6          7          8          9         10
     6  C    0.000000
     7  H    2.335846   0.000000
     8  H    2.572782   1.811325   0.000000
     9  H    3.440463   3.095592   2.483056   0.000000
    10  H    3.902361   3.830637   4.278185   2.445235   0.000000
    11  H    2.885876   2.081545   3.688959   3.830045   3.095257
    12  H    3.672448   3.689820   4.963045   4.278007   2.483350
    13  H    2.148861   3.222285   4.358184   4.818257   4.139289
    14  H    2.146890   3.756531   4.335918   3.998400   3.149848
    15  H    1.082819   2.277227   2.571613   4.135883   4.818472
    16  H    1.083334   2.988711   2.541157   3.146225   3.999107
                   11         12         13         14         15
    11  H    0.000000
    12  H    1.811268   0.000000
    13  H    2.278481   2.575551   0.000000
    14  H    2.988297   2.543505   1.818811   0.000000
    15  H    3.220947   4.359231   2.493431   3.083563   0.000000
    16  H    3.755265   4.336729   3.083422   2.486428   1.818875
                   16
    16  H    0.000000
 Symmetry turned off by external request.
 Stoichiometry    C6H10
 Framework group  C1[X(C6H10)]
 Deg. of freedom    42
 Full point group                 C1      NOp   1
 Rotational constants (GHZ):           4.3973480           3.8543062           2.4501803
 Standard basis: VSTO-6G (5D, 7F)
    34 basis functions,   204 primitive gaussians,    34 cartesian basis functions
    17 alpha electrons       17 beta electrons
       nuclear repulsion energy       143.9834469456 Hartrees.
 Integral buffers will be    131072 words long.
 Regular integral format.
 Two-electron integral symmetry is turned off.
 Do NDO integrals.
 One-electron integrals computed using PRISM.
 NBasis=    34 RedAO= F EigKep=  0.00D+00  NBF=    34
 NBsUse=    34 1.00D-04 EigRej=  0.00D+00 NBFU=    34
 Initial guess from the checkpoint file:  "C:\Users\al6323\OneDrive - Imperial College London\Desktop\TSR202511112\TS_guess_opt_TS(Berny)_IRS_PM6_prep.chk"
 B after Tr=     0.000012   -0.000574    0.000344
         Rot=    1.000000    0.000031    0.000011    0.000044 Ang=   0.01 deg.
 Keep J ints in memory in canonical form, NReq=862358.
 Overlap will be assumed to be unity.
 Requested convergence on RMS density matrix=1.00D-08 within 128 cycles.
 Requested convergence on MAX density matrix=1.00D-06.
 Requested convergence on             energy=1.00D-06.
 No special actions if energy rises.
 SCF Done:  E(RPM6) =  0.112859532935     A.U. after   14 cycles
            NFock= 13  Conv=0.27D-08     -V/T= 1.0022
 Calling FoFJK, ICntrl=      2127 FMM=F ISym2X=0 I1Cent= 0 IOpClX= 0 NMat=1 NMatS=1 NMatT=0.
 -------------------------------------------------------------------
 Center     Atomic                   Forces (Hartrees/Bohr)
 Number     Number              X              Y              Z
 -------------------------------------------------------------------
      1        6           0.000129349   -0.000698337   -0.001012494
      2        6          -0.000981343    0.000689141    0.000423750
      3        6           0.000986165    0.000678898    0.000548734
      4        6          -0.000113939   -0.000665096   -0.001077241
      5        6          -0.001162708    0.000075505    0.000691722
      6        6           0.001146924    0.000108802    0.000686210
      7        1           0.000042999   -0.000051755    0.000247859
      8        1           0.000058091    0.000016899    0.000126814
      9        1          -0.000002506   -0.000009325   -0.000010122
     10        1          -0.000001492   -0.000014622    0.000019769
     11        1          -0.000034597    0.000022879    0.000266758
     12        1          -0.000095692    0.000005066    0.000186671
     13        1           0.000046189   -0.000109587   -0.000294120
     14        1           0.000025928    0.000016215   -0.000332695
     15        1          -0.000028058   -0.000070703   -0.000183184
     16        1          -0.000015312    0.000006020   -0.000288430
 -------------------------------------------------------------------
 Cartesian Forces:  Max     0.001162708 RMS     0.000471480

 GradGradGradGradGradGradGradGradGradGradGradGradGradGradGradGradGradGrad
 Berny optimization.
 FormGI is forming the generalized inverse of G from B-inverse, IUseBI=4.
 Internal  Forces:  Max     0.000926262 RMS     0.000183979
 Search for a saddle point.
 Step number   4 out of a maximum of  100
 All quantities printed in internal units (Hartrees-Bohrs-Radians)
 Swapping is turned off.
[...]
   iso        0.544921D+02      0.807489D+01      0.898453D+01
   aniso      0.336997D+02      0.499378D+01      0.555633D+01
   xx         0.671543D+02      0.995125D+01      0.110723D+02
   yx        -0.222279D+00     -0.329384D-01     -0.366489D-01
   yy         0.321898D+02      0.477003D+01      0.530738D+01
   zx        -0.113480D-01     -0.168160D-02     -0.187104D-02
   zy        -0.178313D+01     -0.264233D+00     -0.293999D+00
   zz         0.641321D+02      0.950340D+01      0.105740D+02

 First dipole hyperpolarizability, Beta (dipole orientation).
 ||, _|_  parallel and perpendicular components, (z) with respect to z axis,
 vector components x,y,z.  Values do not include the 1/n! factor of 1/2.
 (esu units = statvolt**-1 cm**4 , SI units = C**3 m**3 J**-2)
 Beta(0;0,0):
               (au)            (10**-30 esu)      (10**-50 SI)
   || (z)    -0.385365D+02     -0.332925D+00     -0.123562D+00
   _|_(z)    -0.128455D+02     -0.110975D+00     -0.411873D-01
   x          0.955041D+00      0.825081D-02      0.306221D-02
   y          0.149831D+03      0.129442D+01      0.480412D+00
   z         -0.192683D+03     -0.166463D+01     -0.617810D+00
   ||         0.488167D+02      0.421738D+00      0.156524D+00
   xxx        0.259447D+00      0.224142D-02      0.831880D-03
   xxy        0.135876D+02      0.117386D+00      0.435668D-01
   yxy       -0.117834D+00     -0.101800D-02     -0.377819D-03
   yyy        0.862886D+01      0.745466D-01      0.276672D-01
   xxz       -0.402633D+01     -0.347843D-01     -0.129099D-01
   yxz       -0.970331D-01     -0.838290D-03     -0.311123D-03
   yyz       -0.192683D+02     -0.166463D+00     -0.617811D-01
   zxz        0.176734D+00      0.152685D-02      0.566674D-03
   zyz        0.277271D+02      0.239541D+00      0.889032D-01
   zzz       -0.409329D+02     -0.353628D+00     -0.131246D+00

 ----------------------------------------------------------------------
 Unable to Open any file for archive entry.
 1|1|UNPC-SKCH-134-020|Freq|RPM6|ZDO|C6H10|AL6323|12-Nov-2025|0||#N Geo
 m=AllCheck Guess=TCheck SCRF=Check GenChk RPM6/ZDO Freq||TS Benry PM6|
 |0,1|C,-0.6674131722,0.9550382549,0.0989870156|C,0.0393717261,-0.17326
 81557,-0.2631347618|C,1.4503902735,-0.1757247748,-0.2475341954|C,2.152
 9204053,0.9501294176,0.1301673012|C,1.4122133443,1.1997922815,2.095132
 741|C,0.0305426796,1.2021943727,2.0798631681|H,-0.2934023625,1.9535585
 511,-0.104749902|H,-1.7395136163,0.9188502646,0.2398577891|H,-0.478087
 823,-1.122281355,-0.4009348928|H,1.9674628966,-1.126539139,-0.37389458
 59|H,1.7869856143,1.9499370732,-0.0817598064|H,3.2215126201,0.91021308
 95,0.2947010084|H,1.9690066,2.1246138824,2.179604566|H,1.9594627483,0.
 3211093218,2.4145685875|H,-0.5247647918,2.1289480122,2.1520410362|H,-0
 .5266854721,0.3254306929,2.3870867712||Version=EM64W-G16RevC.01|HF=0.1
 1286|RMSD=1.819e-010|RMSF=1.166e-007|ZeroPoint=0.1292306|Thermal=0.135
 6488|ETot=0.2485088|HTot=0.249453|GTot=0.2126259|Dipole=-0.0014174,0.1
 543005,0.1527169|DipoleDeriv=-0.3492267,-0.0072321,0.0184873,0.0044799
 ,-0.2506234,0.1107556,-0.0390187,0.0970886,-0.0593828,-0.1164087,-0.02
 35023,0.1094724,-0.0338357,-0.2126823,-0.1201726,-0.1395459,0.0142996,
 -0.2540054,-0.1169318,0.0228525,-0.1068572,0.0361479,-0.2128879,-0.119
 0283,0.1426259,0.0143064,-0.2532938,-0.3495371,0.0054554,-0.0244983,-0
 .006586,-0.2506241,0.1107082,0.032937,0.0971039,-0.0590591,-0.2226973,
 0.0068307,-0.0161233,-0.0879713,-0.3141313,0.0299993,-0.1601647,-0.087
 5338,-0.3744329,-0.2263775,-0.0051977,0.019506,0.086975,-0.3144184,0.0
 318659,0.1631325,-0.0882289,-0.3704671,0.0625045,0.0261947,-0.0161433,
 -0.0756812,0.1784308,-0.0498301,0.017506,-0.0285965,0.1257595,0.253290
 8,-0.0176075,0.0240786,0.0084213,0.1013473,-0.0072395,-0.0343528,-0.00
 86744,0.1101405,0.1115318,0.0718269,0.0432989,0.0698066,0.2033851,0.04
 88692,0.0277341,0.0061786,0.1479063,0.1126248,-0.0716272,-0.0439055,-0
 .0705529,0.2038796,0.0474703,-0.0284916,0.0046896,0.1463206,0.0627449,
 -0.0251548,0.0145767,0.0771673,0.1782545,-0.0481924,-0.0190011,-0.0291
 01,0.1256948,0.2530246,0.0172671,-0.0209442,-0.008788,0.1013167,-0.007
 351,0.0374805,-0.0084126,0.1104383,0.1309332,0.0459826,0.0379149,0.065
 2596,0.1765093,0.0843654,-0.0117056,0.0054435,0.1446235,0.1307024,-0.0
 195672,0.0454688,-0.0674568,0.1177882,-0.0984741,0.0312652,0.003226,0.
 1586574,0.1311251,-0.0459379,-0.0379221,-0.066951,0.1768996,0.0830379,
 0.0114277,0.0043874,0.144041,0.1327199,0.0194385,-0.0463891,0.0695663,
 0.1174817,-0.0968014,-0.0318309,0.0037669,0.1569445|Polar=67.1529446,-
 0.2126677,46.5413377,0.2198738,15.9879465,49.7819145|HyperPolar=0.4493
 76,6.6951783,-0.0160469,-2.4646521,-12.4920749,0.2570935,-1.0439965,0.
 4403959,-14.7446986,-67.1381395|PG=C01 [X(C6H10)]|NImag=1||0.51346530,
 -0.13322764,0.58573318,-0.10375942,-0.00116490,0.06017131,-0.16563413,
 0.09846797,-0.04241379,0.62484129,0.17471511,-0.31019575,-0.02750891,-
 0.04917075,0.60850247,0.06063976,-0.07741494,-0.06290863,-0.02592084,0
 .12053902,0.18331650,-0.04878999,0.08957099,0.09657272,-0.28661988,-0.
 06351557,-0.01951730,0.62380283,0.02759727,0.02783719,0.03808119,0.064
 27560,-0.09005315,-0.00267983,0.04643817,0.60816847,0.00665677,0.00462
 739,0.01715370,0.01454006,-0.00415190,-0.06211510,0.03607968,0.1214870
 7,0.18468731,-0.00863354,-0.00305199,0.00065548,-0.04688412,-0.0281732
 9,-0.00805591,-0.16612758,-0.17456397,-0.06318396,0.50958506,0.0040540
 7,-0.03468811,-0.04933519,-0.08938757,0.02824590,0.00267460,-0.0972344
 1,-0.30924560,-0.07936215,0.13348272,0.58480258,0.00071826,-0.04941393
 ,-0.07845403,-0.09785265,0.03780325,0.01484152,0.04004005,-0.03151246,
 -0.06336552,0.11368872,0.00140190,0.06497870,-0.00750980,-0.05331185,-
 0.09737346,-0.08291331,0.04224966,0.00933009,0.08473398,0.05101915,0.0
 1790821,-0.00323811,-0.05901674,-0.10832845,0.61769634,-0.00048196,0.0
 0635559,0.00924950,0.00843823,-0.00665746,-0.00553464,-0.01230259,-0.0
 0965975,-0.00999532,-0.00218542,-0.00033177,0.01847209,0.02223605,0.42
 344899,-0.00744619,0.03972241,0.06282325,0.06634011,-0.03728715,-0.013
 33670,-0.07604870,-0.05399656,-0.02844469,-0.01306074,0.05620041,0.094
 89808,0.14156286,-0.04670411,0.08444743,-0.00566751,0.05777383,0.10616
 514,0.08326258,-0.05013561,-0.01547090,-0.08137912,-0.04115459,-0.0108
 5235,-0.00961050,0.05247295,0.09580214,-0.37923818,-0.01188105,-0.0873
 1647,0.62354384,0.00179444,-0.00054181,0.01814279,0.01219419,-0.009526
 29,-0.00966633,-0.00805122,-0.00648369,-0.00568186,0.00033264,0.006170
 17,0.00892248,0.01310138,-0.07129093,-0.00648961,-0.02188857,0.4236026
 8,0.01103034,0.05744845,0.09753416,0.07832911,-0.05538279,-0.02710657,
 -0.06797316,-0.03797503,-0.01504490,0.00598183,0.04086819,0.06510710,0
 .08144795,-0.00705925,-0.11482804,-0.12980463,-0.04671932,0.07844840,-
 0.05785632,-0.05604616,0.01589514,0.01150162,0.01055766,-0.00154902,-0
 .00372324,-0.00084762,-0.00117712,-0.00249637,0.00348612,0.00208271,0.
 00227895,-0.00015781,-0.00288810,-0.00189183,0.00026994,-0.00456487,0.
 06476788,-0.06060081,-0.19237047,0.03103905,-0.00079393,-0.03923257,-0
 .00067393,0.00090905,-0.00088625,-0.00023043,0.00073882,-0.00035385,-0
 .00022977,-0.00048540,-0.00010524,0.00045895,0.00211625,-0.00068504,0.
 00644176,0.06350363,0.23849793,0.01289237,0.04862747,-0.02189787,0.014
 44859,-0.01649251,0.00192867,-0.01216652,-0.00544524,-0.00408661,0.000
 10265,0.00658058,0.01028091,0.01061297,-0.00075812,-0.00941538,-0.0145
 4587,0.00308993,-0.02632399,-0.01597735,-0.03775164,0.03947270,-0.2210
 3845,-0.00675100,0.02552274,-0.02707333,0.01210940,0.00723399,-0.00089
 188,0.00104371,0.00188814,0.00029798,0.00030957,0.00017689,0.00026943,
 -0.00006020,-0.00028801,-0.00467730,-0.00091165,-0.00386932,-0.0132656
 5,-0.00710373,0.00377228,0.26613462,-0.00992155,-0.03552011,0.00133453
 ,0.02810540,-0.00427703,-0.00572123,0.00114382,-0.00193779,-0.00075582
 ,-0.00016443,0.00006960,-0.00013979,-0.00020039,-0.00009138,-0.0000206
 4,-0.00049717,0.00017884,-0.00057343,-0.02075927,-0.00368755,0.0034341
 0,0.00097332,0.04528134,0.02391089,0.00213692,-0.03789580,0.01270237,-
 0.00277577,0.00242007,-0.00046673,-0.00368643,0.00490127,-0.00089036,0
 .00085470,0.00107903,0.00187866,-0.00015370,-0.00210403,-0.00814442,-0
 .00135626,-0.00430362,0.00529246,0.00176602,0.00532730,-0.03280819,0.0
 0269623,0.03372791,0.00648779,0.01107355,0.00151001,-0.07490930,-0.076
 60381,-0.00994234,-0.03128512,-0.02693286,-0.00379532,-0.00304534,0.00
 057493,0.00016639,0.00049789,0.00011539,-0.00001133,-0.00029978,-0.000
 02613,0.00002679,-0.00072044,0.00114425,0.00080669,0.00046768,0.000860
 22,-0.00014061,0.10372004,-0.00301756,-0.04092293,-0.01042705,-0.07788
 061,-0.17275309,-0.01890196,-0.01163720,-0.00333983,-0.00202939,0.0001
 1874,-0.00007087,-0.00127682,-0.00044120,0.00025915,0.00093693,0.00114
 965,-0.00016241,0.00104192,0.00076881,-0.00198939,-0.00180990,0.000609
 66,-0.00011575,0.00032499,0.09030325,0.21829042,-0.00225013,-0.0078349
 5,0.00887578,-0.00452101,-0.02250823,-0.04507913,-0.00647218,-0.002365
 66,0.00459783,0.00031318,0.00164181,0.00712794,0.00370225,-0.00018481,
 -0.00265817,-0.00386690,-0.00031127,-0.00347282,0.00192503,-0.00049161
 ,0.00450696,-0.00036945,-0.00012749,-0.00217430,0.01169532,0.03199076,
 0.02845602,-0.00303225,-0.00060091,-0.00039567,-0.03135980,0.02707612,
 0.00299200,-0.07467450,0.07674109,0.00921888,0.00644566,-0.01106259,-0
 .00159983,-0.00039037,0.00003381,0.00004518,0.00057916,-0.00011237,0.0
 0008633,0.00003888,-0.00011307,-0.00006185,-0.00019202,0.00041392,0.00
 039312,-0.00072888,0.00025604,-0.00000020,0.10356814,-0.00008016,-0.00
 006849,-0.00127807,0.01177652,-0.00347460,-0.00178233,0.07793798,-0.17
 329143,-0.01721244,0.00308255,-0.04089501,-0.01035415,-0.00117181,-0.0
 0015847,0.00101626,0.00041943,0.00025805,0.00094631,-0.00000189,-0.000
 02055,0.00015331,0.00007179,-0.00001990,0.00014500,-0.00025980,0.00077
 794,0.00040411,-0.09058874,0.21892038,-0.00053238,0.00163033,0.0071124
 4,0.00566832,-0.00178970,0.00480712,0.00378491,-0.02082717,-0.04477515
 ,0.00216904,-0.00808719,0.00889047,0.00393415,-0.00032419,-0.00338652,
 -0.00363139,-0.00017459,-0.00273824,0.00011913,-0.00020731,-0.00050500
 ,-0.00009036,0.00006337,-0.00012125,0.00000684,0.00040980,-0.00096537,
 -0.00991912,0.03002811,0.02797792,-0.00245699,-0.00362328,-0.00236500,
 -0.00401804,0.00097862,0.00117776,0.01174871,-0.01036797,0.00176426,-0
 .05680399,0.05448546,-0.01656132,-0.00233517,-0.00033266,0.00511776,0.
 00244621,0.00016554,0.00315188,0.00102370,0.00079316,0.00015999,0.0001
 2707,0.00013633,-0.00017107,0.00004028,-0.00000170,-0.00010780,-0.0006
 6405,-0.00073316,-0.00204107,0.06361482,-0.00072626,-0.00033884,-0.000
 23811,-0.00089316,-0.00088635,-0.00025450,0.00063147,-0.03919873,-0.00
 066376,0.05942781,-0.19277108,0.03242411,-0.00225282,-0.00067638,0.006
 37643,0.00046653,-0.00010748,0.00045884,-0.00079632,0.00035433,0.00002
 888,-0.00024112,-0.00006220,0.00021181,0.00011741,-0.00002095,-0.00020
 437,-0.00113770,-0.00198282,-0.00050991,-0.06204470,0.23893440,-0.0003
 6152,0.00650282,0.01022666,0.01214908,-0.00546745,-0.00379176,-0.01428
 890,-0.01667369,0.00164760,-0.01349813,0.04989693,-0.02254918,0.015087
 15,0.00303173,-0.02588956,-0.01035343,-0.00071809,-0.00958034,-0.00011
 240,0.00004693,-0.00112268,0.00005659,0.00000250,-0.00005232,0.0000744
 7,0.00015308,-0.00050600,-0.00092722,-0.00182345,0.00444386,0.01638261
 ,-0.03919768,0.04018915,0.00028204,-0.00032913,-0.00019501,-0.00086496
 ,-0.00096560,-0.00201820,-0.02675733,-0.01196651,-0.00789855,-0.219796
 43,0.00734505,-0.02954020,-0.00493766,0.00095910,0.00385338,0.00030439
 ,0.00006219,0.00034122,0.00012480,0.00023573,-0.00005268,-0.00018911,-
 0.00007989,0.00025539,-0.00018700,-0.00007440,0.00008913,0.00044997,-0
 .00061869,0.00042706,-0.01295945,0.00709535,-0.00416497,0.26456098,0.0
 0016680,0.00007014,-0.00013548,-0.00113058,-0.00193034,-0.00077414,-0.
 02789330,-0.00413763,-0.00631396,0.01053247,-0.03558032,0.00165657,0.0
 0052727,0.00017381,-0.00057557,0.00019948,-0.00009229,-0.00001733,-0.0
 0013701,-0.00006255,-0.00000033,0.00008167,0.00003789,-0.00004442,-0.0
 0041461,-0.00001820,0.00005389,-0.00085915,-0.00011061,-0.00014789,0.0
 2071072,-0.00378446,0.00390641,-0.00179779,0.04529104,0.00087561,0.000
 84464,0.00109452,0.00032655,-0.00371006,0.00486680,-0.01335617,-0.0029
 9665,0.00196462,-0.02792572,0.00238317,-0.03907743,0.00812591,-0.00136
 395,-0.00403859,-0.00182603,-0.00014592,-0.00213812,0.00017575,0.00021
 648,-0.00004968,-0.00025829,-0.00004531,-0.00006502,-0.00039407,0.0001
 4475,-0.00012797,0.00019979,0.00031081,-0.00216173,-0.00569157,0.00194
 220,0.00511799,0.03792133,0.00254233,0.03529197,-0.00043834,0.00061252
 ,0.00114545,0.00111524,-0.00016666,0.00019731,-0.00099161,-0.00073372,
 -0.00028668,0.00054616,0.00064457,0.00157922,-0.08045910,-0.08040992,-
 0.00995323,-0.03300218,-0.02786872,-0.00253742,-0.00009384,-0.00002301
 ,-0.00016210,-0.00002213,0.00003252,-0.00017747,-0.00006863,-0.0000981
 4,-0.00008868,0.00001683,0.00000695,-0.00006065,0.00038512,0.00020778,
 -0.00013593,0.00002011,0.00030325,0.00069005,0.11037154,-0.00001108,-0
 .00090077,-0.00093644,-0.00133944,0.00121970,0.00068795,0.00178415,0.0
 0069806,0.00010242,0.00042759,-0.00398640,-0.00827512,-0.08519215,-0.1
 7515362,-0.00872165,-0.01049977,-0.00256836,0.00024738,0.00007932,0.00
 012742,0.00016303,-0.00003411,0.00005512,-0.00011336,-0.00008397,-0.00
 020233,0.00000601,0.00001839,-0.00006721,0.00004879,-0.00017172,0.0007
 0081,-0.00001929,0.00047584,-0.00010164,-0.00019518,0.10120791,0.20257
 209,0.00006503,-0.00512756,-0.00893027,-0.00870709,0.00399593,0.000721
 60,0.00855507,0.00525165,0.00139400,0.00153033,-0.01342880,-0.02120292
 ,-0.02389304,-0.01119472,-0.02332196,0.01025239,-0.00050421,0.01240074
 ,0.00011763,-0.00009194,0.00098383,-0.00002677,-0.00003401,0.00027213,
 0.00006125,-0.00003499,0.00040742,0.00001594,-0.00022535,0.00049265,-0
 .00027317,-0.00040068,-0.00085303,0.00042992,-0.00039012,-0.00056418,0
 .01011322,0.01572946,0.03176599,-0.00041404,0.00060959,0.00113848,0.00
 101008,-0.00026098,0.00020693,-0.00081643,-0.00078544,-0.00045140,0.00
 057698,0.00084165,0.00154717,-0.07876710,0.07424034,-0.03003154,-0.032
 84246,0.02620645,-0.00955419,-0.00004756,0.00002967,-0.00011487,-0.000
 03662,0.00003963,-0.00016276,-0.00005768,-0.00008656,-0.00009931,0.000
 07167,-0.00003049,-0.00000416,-0.00000773,0.00015069,-0.00013732,0.000
 01653,-0.00021741,0.00080731,0.00600939,-0.00679402,0.00162224,0.10871
 759,-0.00003463,-0.00046878,-0.00120927,-0.00064112,-0.00027983,-0.000
 29361,0.00026708,0.00060817,-0.00025445,-0.00009373,-0.00001074,0.0026
 3963,0.07540468,-0.16250252,0.04567359,0.01312083,-0.00104284,0.003271
 89,0.00001756,-0.00002185,0.00009972,0.00002528,-0.00002901,0.00015093
 ,0.00008345,0.00022189,0.00000698,-0.00006612,0.00011340,-0.00012379,0
 .00010596,-0.00026598,0.00010262,-0.00034954,0.00021875,0.00003589,0.0
 0655105,-0.02337980,0.00594549,-0.09424740,0.18596223,-0.00013728,-0.0
 0514056,-0.00873231,-0.00818458,0.00446253,0.00135979,0.00833267,0.004
 92797,-0.00096256,0.00176587,-0.00199055,-0.02484166,-0.04463435,0.048
 40463,-0.03842635,0.00713625,0.00451673,0.01143427,0.00018592,0.000027
 53,0.00106411,-0.00002789,-0.00000147,0.00016726,-0.00001235,-0.000139
 33,0.00027524,0.00002013,-0.00015849,0.00024290,-0.00019040,0.00008967
 ,0.00067065,0.00050786,0.00027743,-0.00055993,-0.00023697,0.00149616,0
 .00502460,0.03548729,-0.05635769,0.05179198,0.00060205,-0.00036350,-0.
 00112580,-0.00081179,0.00062275,0.00023823,0.00093190,0.00007927,-0.00
 019025,-0.00041744,-0.00050067,-0.00096047,-0.03267577,0.02797762,0.00
 154052,-0.08060351,0.08030895,0.00865323,0.00037538,-0.00019775,0.0001
 6306,0.00004193,-0.00029502,-0.00067733,0.00001600,-0.00000226,0.00005
 028,-0.00006837,0.00009842,0.00007817,-0.00009450,0.00002581,0.0001388
 3,-0.00002648,-0.00003148,0.00017049,-0.00038998,0.00015181,-0.0003914
 7,-0.00299430,0.00011774,0.00037086,0.11007562,-0.00026033,-0.00398336
 ,-0.00827793,-0.00178040,0.00070190,0.00006211,0.00132458,0.00121467,0
 .00071809,0.00003003,-0.00089890,-0.00093236,0.01059673,-0.00270208,0.
 00047348,0.08503484,-0.17572884,-0.00687228,0.00017324,0.00070092,-0.0
 0001600,-0.00047190,-0.00009895,-0.00020327,-0.00001975,-0.00006713,0.
 00004818,0.00008336,-0.00020297,0.00000758,-0.00008213,0.00012762,0.00
 016073,0.00003689,0.00005511,-0.00011318,-0.00013559,0.00104316,-0.000
 50827,0.00002288,-0.00005674,0.00028542,-0.10120932,0.20327568,-0.0010
 9458,-0.01343516,-0.02126159,-0.00858536,0.00529643,0.00121030,0.00872
 551,0.00396826,0.00091004,0.00010537,-0.00513994,-0.00895312,-0.011251
 03,0.00015042,0.01220813,0.02258404,-0.00949892,-0.02260262,0.00029894
 ,-0.00040617,-0.00084342,-0.00041787,-0.00039525,-0.00058869,-0.000027
 29,-0.00022538,0.00049338,-0.00007192,-0.00003258,0.00040781,-0.000141
 78,-0.00009094,0.00098428,0.00002004,-0.00003480,0.00027651,0.00044893
 ,-0.00050656,-0.00307217,-0.00069049,0.00102109,0.00447960,-0.00832323
 ,0.01352390,0.03135824,0.00063508,-0.00079965,-0.00097464,-0.00064093,
 0.00068070,0.00045760,0.00083682,0.00015836,-0.00021953,-0.00039746,-0
 .00049603,-0.00095839,-0.03301111,-0.02618910,0.00858372,-0.08092587,-
 0.07557711,0.02925321,-0.00001557,-0.00015353,0.00012250,0.00004729,0.
 00021187,-0.00079377,0.00007246,0.00003410,-0.00000005,-0.00005996,0.0
 0009059,0.00009191,-0.00004563,-0.00003017,0.00009069,-0.00004097,-0.0
 0003955,0.00015870,-0.00299827,-0.00001903,0.00052882,-0.00041815,-0.0
 0026067,-0.00038270,0.00603940,0.00665712,-0.00157930,0.11092304,0.000
 03305,-0.00000810,0.00264542,-0.00025669,0.00060652,-0.00026181,0.0006
 4323,-0.00028283,-0.00027870,0.00006112,-0.00046702,-0.00120451,-0.013
 07840,-0.00090619,0.00295076,-0.07668146,-0.16197811,0.04388896,-0.000
 10909,-0.00026509,0.00009979,0.00034928,0.00021679,0.00004639,0.000068
 98,0.00011306,-0.00012231,-0.00008260,0.00022187,0.00000480,-0.0000196
 7,-0.00002168,0.00009895,-0.00002857,-0.00002877,0.00014979,-0.0001299
 5,-0.00005624,0.00101622,0.00028091,0.00093374,-0.00070181,-0.00678314
 ,-0.02338006,0.00580364,0.09573261,0.18530219,-0.00120904,-0.00200341,
 -0.02490189,-0.00830822,0.00497303,-0.00113650,0.00818835,0.00443863,0
 .00153612,0.00030381,-0.00515350,-0.00875053,-0.00810247,0.00396413,0.
 01146631,0.04386508,0.04659417,-0.03679255,0.00017556,0.00008567,0.000
 67755,-0.00049348,0.00028390,-0.00058869,-0.00002448,-0.00015768,0.000
 24244,0.00000444,-0.00013742,0.00027754,-0.00021035,0.00002757,0.00106
 200,0.00002326,-0.00000243,0.00017138,-0.00053508,0.00028653,0.0044830
 7,0.00043695,-0.00070924,-0.00298744,0.00026494,0.00164397,0.00499486,
 -0.03437915,-0.05413573,0.05024648||0.00000008,-0.00000024,-0.00000035
 ,-0.00000008,0.00000020,-0.00000005,-0.00000003,-0.00000015,-0.0000000
 1,0.00000014,0.00000009,0.00000024,-0.00000006,-0.00000001,-0.00000030
 ,0.,0.00000009,0.00000025,-0.00000001,-0.00000009,0.00000026,0.,0.0000
 0011,0.00000009,0.,-0.00000002,0.00000004,-0.00000001,0.,0.00000003,0.
 ,0.00000007,-0.00000009,0.00000004,-0.00000002,-0.00000009,-0.00000001
 ,0.00000005,0.00000004,-0.00000001,-0.00000004,0.00000002,-0.00000004,
 -0.00000007,-0.00000004,0.,0.00000003,-0.00000001|||@
 The archive entry for this job was punched.


 THE PROMISED LAND ALWAYS LIES ON THE OTHER SIDE OF A WILDERNESS.

                         -- HAVELOCK ELLIS
 Job cpu time:       0 days  0 hours  0 minutes  6.0 seconds.
 Elapsed time:       0 days  0 hours  0 minutes  3.6 seconds.
 File lengths (MBytes):  RWF=     11 Int=      0 D2E=      0 Chk=      2 Scr=      1
 Normal termination of Gaussian 16 at Wed Nov 12 17:35:29 2025.
