 Default is to use a total of   8 processors:
                                8 via shared-memory
                                1 via Linda
 Entering Link 1 = C:\G16W\l1.exe PID=      3792.
  
 Copyright (c) 1988-2019, Gaussian, Inc.  All Rights Reserved.
  
 This is part of the Gaussian(R) 16 program.  It is based on
 the Gaussian(R) 09 system (copyright 2009, Gaussian, Inc.),
 the Gaussian(R) 03 system (copyright 2003, Gaussian, Inc.),
 the Gaussian(R) 98 system (copyright 1998, Gaussian, Inc.),
 the Gaussian(R) 94 system (copyright 1995, Gaussian, Inc.),
 the Gaussian 92(TM) system (copyright 1992, Gaussian, Inc.),
 the Gaussian 90(TM) system (copyright 1990, Gaussian, Inc.),
 the Gaussian 88(TM) system (copyright 1988, Gaussian, Inc.),
 the Gaussian 86(TM) system (copyright 1986, Carnegie Mellon
 University), and the Gaussian 82(TM) system (copyright 1983,
 Carnegie Mellon University). Gaussian is a federally registered
 trademark of Gaussian, Inc.
  
 This software contains proprietary and confidential information,
 including trade secrets, belonging to Gaussian, Inc.
  
 This software is provided under written license and may be
 used, copied, transmitted, or stored only in accord with that
 written license.
  
 The following legend is applicable only to US Government
 contracts under FAR:
  
                    RESTRICTED RIGHTS LEGEND
  
 Use, reproduction and disclosure by the US Government is
 subject to restrictions as set forth in subparagraphs (a)
 and (c) of the Commercial Computer Software - Restricted
 Rights clause in FAR 52.227-19.
  
 Gaussian, Inc.
 340 Quinnipiac St., Bldg. 40, Wallingford CT 06492
  
  
 ---------------------------------------------------------------
 Warning -- This program may not be used in any manner that
 competes with the business of Gaussian, Inc. or will provide
 assistance to any competitor of Gaussian, Inc.  The licensee
 of this program is prohibited from giving any competitor of
 Gaussian, Inc. access to this program.  By using this program,
 the user acknowledges that Gaussian, Inc. is engaged in the
 business of creating and licensing software in the field of
 computational chemistry and represents and warrants to the
 licensee that it is not a competitor of Gaussian, Inc. and that
 it will not use this program in any manner prohibited above.
 ---------------------------------------------------------------
  

 Cite this work as:
 Gaussian 16, Revision C.01,
 M. J. Frisch, G. W. Trucks, H. B. Schlegel, G. E. Scuseria, 
 M. A. Robb, J. R. Cheeseman, G. Scalmani, V. Barone, 
 G. A. Petersson, H. Nakatsuji, X. Li, M. Caricato, A. V. Marenich, 
 J. Bloino, B. G. Janesko, R. Gomperts, B. Mennucci, H. P. Hratchian, 
 J. V. Ortiz, A. F. Izmaylov, J. L. Sonnenberg, D. Williams-Young, 
 F. Ding, F. Lipparini, F. Egidi, J. Goings, B. Peng, A. Petrone, 
 T. Henderson, D. Ranasinghe, V. G. Zakrzewski, J. Gao, N. Rega, 
 G. Zheng, W. Liang, M. Hada, M. Ehara, K. Toyota, R. Fukuda, 
 J. Hasegawa, M. Ishida, T. Nakajima, Y. Honda, O. Kitao, H. Nakai, 
 T. Vreven, K. Throssell, J. A. Montgomery, Jr., J. E. Peralta, 
 F. Ogliaro, M. J. Bearpark, J. J. Heyd, E. N. Brothers, K. N. Kudin, 
 V. N. Staroverov, T. A. Keith, R. Kobayashi, J. Normand, 
 K. Raghavachari, A. P. Rendell, J. C. Burant, S. S. Iyengar, 
 J. Tomasi, M. Cossi, J. M. Millam, M. Klene, C. Adamo, R. Cammi, 
 J. W. Ochterski, R. L. Martin, K. Morokuma, O. Farkas, 
 J. B. Foresman, and D. J. Fox, Gaussian, Inc., Wallingford CT, 2019.
 
 ******************************************
 Gaussian 16:  EM64W-G16RevC.01 30-May-2019
                10-Nov-2025 
 ******************************************
 %chk=C:\Users\al6323\OneDrive - Imperial College London\Desktop\TSR20251110\buta
 diene_opt+freq.chk
 Default route: MaxDisk=10GB
 -----------------------------------------------------------
 # freq pm6 nosymm geom=connectivity opt=cartesian scf=tight
 -----------------------------------------------------------
 1/10=7,18=10,26=1,38=1,57=2/1,3;
 2/12=2,15=1,17=6,18=5,29=2,40=1/2;
 3/5=2,25=1,41=3900000,71=1/1,2,3;
 4/35=1/1;
 5/5=2,32=2,35=1,38=5/2;
 6/7=2,8=2,9=2,10=2,28=1/1;
 7/7=1,29=1,30=1/1,2,3,16;
 1/10=7,18=10,26=1/3(2);
 2/15=1,29=1/2;
 99/12=1/99;
 2/15=1,29=1/2;
 3/5=2,25=1,41=3900000,71=1,135=20/1,2,3;
 4/5=5,16=3,35=1/1;
 5/5=2,32=2,35=1,38=5/2;
 7/7=1,30=1/1,2,3,16;
 1/18=10,26=1/3(-5);
 2/15=1,29=1/2;
 6/7=2,8=2,9=2,10=2,19=2,28=1/1;
 99/9=1,12=1/99;
 -------------
 butadiene_opt
 -------------
 Symbolic Z-matrix:
 Charge =  0 Multiplicity = 1
 C                    -0.87239  -0.23378   0.12909 
 H                    -1.83554   0.04192   0.56801 
 C                    -0.57277  -1.50246  -0.15146 
 H                    -1.24737  -2.32536   0.03399 
 H                     0.365    -1.8099   -0.59297 
 C                     0.02455   0.9029   -0.12914 
 H                    -0.46756   1.77551  -0.56814 
 C                     1.3281    0.90655   0.15149 
 H                     1.97158   1.75402  -0.03395 
 H                     1.84518   0.06602   0.59308 
 

 GradGradGradGradGradGradGradGradGradGradGradGradGradGradGradGradGradGrad
 Berny optimization.
 Initialization pass.
 No Z-matrix variables, so optimization will use Cartesian coordinates.
 Trust Radius=3.00D-01 FncErr=1.00D-07 GrdErr=1.00D-07 EigMax=2.50D+02 EigMin=1.00D-04
 Number of steps in this run=     40 maximum allowed number of steps=    100.
 GradGradGradGradGradGradGradGradGradGradGradGradGradGradGradGradGradGrad

 ---------------------------------------------------------------------------------------------------
                            Z-MATRIX (ANGSTROMS AND DEGREES)
   CD    Cent   Atom    N1       Length/X        N2       Alpha/Y        N3        Beta/Z          J
 ---------------------------------------------------------------------------------------------------
      1      1  C        0  -0.872388         -0.233775          0.129093
      2      2  H        0  -1.835544          0.041924          0.568013
      3      3  C        0  -0.572766         -1.502456         -0.151459
      4      4  H        0  -1.247368         -2.325364          0.033985
      5      5  H        0   0.364998         -1.809905         -0.592970
      6      6  C        0   0.024546          0.902900         -0.129144
      7      7  H        0  -0.467558          1.775508         -0.568141
      8      8  C        0   1.328104          0.906553          0.151493
      9      9  H        0   1.971576          1.754025         -0.033952
     10     10  H        0   1.845181          0.066024          0.593082
 ---------------------------------------------------------------------------------------------------
                         Z-Matrix orientation:                         
 ---------------------------------------------------------------------
 Center     Atomic      Atomic             Coordinates (Angstroms)
 Number     Number       Type             X           Y           Z
 ---------------------------------------------------------------------
      1          6           0       -0.872388   -0.233775    0.129093
      2          1           0       -1.835544    0.041924    0.568013
      3          6           0       -0.572766   -1.502456   -0.151459
      4          1           0       -1.247368   -2.325364    0.033985
      5          1           0        0.364998   -1.809905   -0.592970
      6          6           0        0.024546    0.902900   -0.129144
      7          1           0       -0.467558    1.775508   -0.568141
      8          6           0        1.328104    0.906553    0.151493
      9          1           0        1.971576    1.754025   -0.033952
     10          1           0        1.845181    0.066024    0.593082
 ---------------------------------------------------------------------
                    Distance matrix (angstroms):
                    1          2          3          4          5
     1  C    0.000000
     2  H    1.093769   0.000000
     3  C    1.333430   2.120697   0.000000
     4  H    2.127064   2.497036   1.080118   0.000000
     5  H    2.129949   3.101537   1.081137   1.805130   0.000000
     6  C    1.470785   2.165004   2.478511   3.473624   2.773148
     7  H    2.165004   2.483455   3.306016   4.217560   3.680889
     8  C    2.478511   3.306016   3.083571   4.134265   2.976733
     9  H    3.473624   4.217560   4.134265   5.196886   3.949074
    10  H    2.773148   3.680890   2.976733   3.949074   2.667728
                    6          7          8          9         10
     6  C    0.000000
     7  H    1.093769   0.000000
     8  C    1.333430   2.120697   0.000000
     9  H    2.127064   2.497036   1.080118   0.000000
    10  H    2.129949   3.101537   1.081137   1.805130   0.000000
 Symmetry turned off by external request.
 Stoichiometry    C4H6
 Framework group  C2[X(C4H6)]
 Deg. of freedom    13
 Full point group                 C2      NOp   2
 Rotational constants (GHZ):          21.5141103           5.5946031           4.6171950
 Standard basis: VSTO-6G (5D, 7F)
    22 basis functions,   132 primitive gaussians,    22 cartesian basis functions
    11 alpha electrons       11 beta electrons
       nuclear repulsion energy        70.6105218917 Hartrees.
 Integral buffers will be    131072 words long.
 Regular integral format.
 Two-electron integral symmetry is turned off.
 Do NDO integrals.
 One-electron integrals computed using PRISM.
 NBasis=    22 RedAO= F EigKep=  0.00D+00  NBF=    22
 NBsUse=    22 1.00D-04 EigRej=  0.00D+00 NBFU=    22
 Simple Huckel Guess.
 Keep J ints in memory in canonical form, NReq=860578.
 Overlap will be assumed to be unity.
 Requested convergence on RMS density matrix=1.00D-08 within 128 cycles.
 Requested convergence on MAX density matrix=1.00D-06.
 Requested convergence on             energy=1.00D-06.
 No special actions if energy rises.
 SCF Done:  E(RPM6) =  0.464520760493E-01 A.U. after   12 cycles
            NFock= 11  Conv=0.47D-08     -V/T= 1.0014

 **********************************************************************

            Population analysis using the SCF Density.

 **********************************************************************

 Alpha  occ. eigenvalues --   -1.03431  -0.94201  -0.80282  -0.68312  -0.61423
 Alpha  occ. eigenvalues --   -0.54482  -0.53671  -0.47185  -0.43499  -0.41333
 Alpha  occ. eigenvalues --   -0.35900
 Alpha virt. eigenvalues --    0.01944   0.06360   0.15998   0.19574   0.21084
 Alpha virt. eigenvalues --    0.21446   0.21753   0.23287   0.23334   0.23590
 Alpha virt. eigenvalues --    0.24262
          Condensed to atoms (all electrons):
               1          2          3          4          5          6
     1  C    4.112718   0.000000   0.000000   0.000000   0.000000   0.000000
     2  H    0.000000   0.858773   0.000000   0.000000   0.000000   0.000000
     3  C    0.000000   0.000000   4.331126   0.000000   0.000000   0.000000
     4  H    0.000000   0.000000   0.000000   0.851162   0.000000   0.000000
     5  H    0.000000   0.000000   0.000000   0.000000   0.846221   0.000000
     6  C    0.000000   0.000000   0.000000   0.000000   0.000000   4.112718
     7  H    0.000000   0.000000   0.000000   0.000000   0.000000   0.000000
     8  C    0.000000   0.000000   0.000000   0.000000   0.000000   0.000000
     9  H    0.000000   0.000000   0.000000   0.000000   0.000000   0.000000
    10  H    0.000000   0.000000   0.000000   0.000000   0.000000   0.000000
               7          8          9         10
     1  C    0.000000   0.000000   0.000000   0.000000
     2  H    0.000000   0.000000   0.000000   0.000000
     3  C    0.000000   0.000000   0.000000   0.000000
     4  H    0.000000   0.000000   0.000000   0.000000
     5  H    0.000000   0.000000   0.000000   0.000000
     6  C    0.000000   0.000000   0.000000   0.000000
     7  H    0.858773   0.000000   0.000000   0.000000
     8  C    0.000000   4.331126   0.000000   0.000000
     9  H    0.000000   0.000000   0.851162   0.000000
    10  H    0.000000   0.000000   0.000000   0.846221
 Mulliken charges:
               1
     1  C   -0.112718
     2  H    0.141227
     3  C   -0.331126
     4  H    0.148838
     5  H    0.153779
     6  C   -0.112718
     7  H    0.141227
     8  C   -0.331126
     9  H    0.148838
    10  H    0.153779
 Sum of Mulliken charges =   0.00000
 Mulliken charges with hydrogens summed into heavy atoms:
               1
     1  C    0.028510
     3  C   -0.028510
     6  C    0.028510
     8  C   -0.028510
 Charge=              0.0000 electrons
 Dipole moment (field-independent basis, Debye):
    X=             -0.1120    Y=              0.0884    Z=              0.0000  Tot=              0.1427
 N-N= 7.061052189170D+01 E-N=-9.426151555373D+01  KE=-3.319228684763D+01
 Calling FoFJK, ICntrl=      2127 FMM=F ISym2X=0 I1Cent= 0 IOpClX= 0 NMat=1 NMatS=1 NMatT=0.
 -------------------------------------------------------------------
 Center     Atomic                   Forces (Hartrees/Bohr)
 Number     Number              X              Y              Z
 -------------------------------------------------------------------
      1        6           0.000000047   -0.000000063   -0.000000031
      2        1           0.000000085   -0.000000025   -0.000000039
      3        6          -0.000000011    0.000000111    0.000000022
      4        1           0.000000039    0.000000046   -0.000000013
      5        1          -0.000000080    0.000000031    0.000000036
      6        6           0.000000096   -0.000000043    0.000000042
      7        1           0.000000039   -0.000000062    0.000000032
      8        6          -0.000000140   -0.000000006   -0.000000028
      9        1          -0.000000033   -0.000000041    0.000000009
     10        1          -0.000000043    0.000000053   -0.000000030
 -------------------------------------------------------------------
 Cartesian Forces:  Max     0.000000140 RMS     0.000000055

 GradGradGradGradGradGradGradGradGradGradGradGradGradGradGradGradGradGrad
 Berny optimization.
 Search for a local minimum.
 Step number   1 out of a maximum of   40
 All quantities printed in internal units (Hartrees-Bohrs-Radians)
 Second derivative matrix not updated -- first step.
 ITU=  0
     Eigenvalues ---    0.00417   0.00978   0.01674   0.03433   0.03937
     Eigenvalues ---    0.06598   0.06914   0.08087   0.09506   0.12240
     Eigenvalues ---    0.14822   0.16909   0.19611   0.25316   0.27954
     Eigenvalues ---    0.38178   0.41816   0.57862   0.73623   0.86953
     Eigenvalues ---    1.03325   1.15754   1.61969   1.63967
 RFO step:  Lambda= 0.00000000D+00 EMin= 4.16829721D-03
 Linear search not attempted -- first point.
 B after Tr=     0.000000    0.000000    0.000000
         Rot=    1.000000    0.000000    0.000000    0.000000 Ang=   0.00 deg.
 Variable       Old X    -DE/DX   Delta X   Delta X   Delta X     New X
                                 (Linear)    (Quad)   (Total)
    X1       -1.64857   0.00000   0.00000   0.00000   0.00000  -1.64857
    Y1       -0.44177   0.00000   0.00000   0.00000   0.00000  -0.44177
    Z1        0.24395   0.00000   0.00000   0.00000   0.00000   0.24395
    X2       -3.46868   0.00000   0.00000   0.00000   0.00000  -3.46868
    Y2        0.07922   0.00000   0.00000   0.00000   0.00000   0.07922
    Z2        1.07339   0.00000   0.00000   0.00000   0.00000   1.07339
    X3       -1.08237   0.00000   0.00000   0.00000   0.00000  -1.08237
    Y3       -2.83923   0.00000   0.00000   0.00000   0.00000  -2.83923
    Z3       -0.28622   0.00000   0.00000   0.00000   0.00000  -0.28622
    X4       -2.35718   0.00000   0.00000   0.00000   0.00000  -2.35718
    Y4       -4.39430   0.00000   0.00000   0.00000   0.00000  -4.39430
    Z4        0.06422   0.00000   0.00000   0.00000   0.00000   0.06422
    X5        0.68975   0.00000   0.00000   0.00000   0.00000   0.68975
    Y5       -3.42022   0.00000   0.00000   0.00000   0.00000  -3.42022
    Z5       -1.12055   0.00000   0.00000   0.00000   0.00000  -1.12055
    X6        0.04638   0.00000   0.00000   0.00000   0.00000   0.04638
    Y6        1.70623   0.00000   0.00000   0.00000   0.00000   1.70623
    Z6       -0.24405   0.00000   0.00000   0.00000   0.00000  -0.24405
    X7       -0.88356   0.00000   0.00000   0.00000   0.00000  -0.88356
    Y7        3.35522   0.00000   0.00000   0.00000   0.00000   3.35522
    Z7       -1.07363   0.00000   0.00000   0.00000   0.00000  -1.07363
    X8        2.50975   0.00000   0.00000   0.00000   0.00000   2.50975
    Y8        1.71314   0.00000   0.00000   0.00000   0.00000   1.71314
    Z8        0.28628   0.00000   0.00000   0.00000   0.00000   0.28628
    X9        3.72574   0.00000   0.00000   0.00000   0.00000   3.72574
    Y9        3.31463   0.00000   0.00000   0.00000   0.00000   3.31463
    Z9       -0.06416   0.00000   0.00000   0.00000   0.00000  -0.06416
   X10        3.48689   0.00000   0.00000   0.00000   0.00000   3.48689
   Y10        0.12477   0.00000   0.00000   0.00000   0.00000   0.12477
   Z10        1.12076   0.00000   0.00000   0.00000   0.00000   1.12076
         Item               Value     Threshold  Converged?
 Maximum Force            0.000000     0.000450     YES
 RMS     Force            0.000000     0.000300     YES
 Maximum Displacement     0.000001     0.001800     YES
 RMS     Displacement     0.000000     0.001200     YES
 Predicted change in Energy=-1.523263D-13
 Optimization completed.
    -- Stationary point found.
 GradGradGradGradGradGradGradGradGradGradGradGradGradGradGradGradGradGrad

                          Input orientation:                          
 ---------------------------------------------------------------------
 Center     Atomic      Atomic             Coordinates (Angstroms)
 Number     Number       Type             X           Y           Z
 ---------------------------------------------------------------------
      1          6           0       -0.872388   -0.233775    0.129093
      2          1           0       -1.835544    0.041924    0.568013
      3          6           0       -0.572766   -1.502456   -0.151459
      4          1           0       -1.247368   -2.325364    0.033985
      5          1           0        0.364998   -1.809905   -0.592970
      6          6           0        0.024546    0.902900   -0.129144
      7          1           0       -0.467558    1.775508   -0.568141
      8          6           0        1.328104    0.906553    0.151493
      9          1           0        1.971576    1.754025   -0.033952
     10          1           0        1.845181    0.066024    0.593082
 ---------------------------------------------------------------------
                    Distance matrix (angstroms):
                    1          2          3          4          5
     1  C    0.000000
     2  H    1.093769   0.000000
     3  C    1.333430   2.120697   0.000000
     4  H    2.127064   2.497036   1.080118   0.000000
     5  H    2.129949   3.101537   1.081137   1.805130   0.000000
     6  C    1.470785   2.165004   2.478511   3.473624   2.773148
     7  H    2.165004   2.483455   3.306016   4.217560   3.680889
     8  C    2.478511   3.306016   3.083571   4.134265   2.976733
     9  H    3.473624   4.217560   4.134265   5.196886   3.949074
    10  H    2.773148   3.680890   2.976733   3.949074   2.667728
                    6          7          8          9         10
     6  C    0.000000
     7  H    1.093769   0.000000
     8  C    1.333430   2.120697   0.000000
     9  H    2.127064   2.497036   1.080118   0.000000
    10  H    2.129949   3.101537   1.081137   1.805130   0.000000
 Symmetry turned off by external request.
 Stoichiometry    C4H6
 Framework group  C1[X(C4H6)]
 Deg. of freedom    24
 Full point group                 C1      NOp   1
 Rotational constants (GHZ):          21.5141103           5.5946031           4.6171950
 Unable to Open any file for archive entry.
 1|1|UNPC-SKCH-134-016|FOpt|RPM6|ZDO|C4H6|AL6323|10-Nov-2025|0||# freq 
 pm6 nosymm geom=connectivity opt=cartesian scf=tight||butadiene_opt||0
 ,1|C,-0.87238829,-0.23377521,0.12909341|H,-1.83554431,0.04192362,0.568
 01283|C,-0.57276584,-1.5024561,-0.15145881|H,-1.24736754,-2.32536446,0
 .03398534|H,0.36499773,-1.8099045,-0.59297023|C,0.02454584,0.90289955,
 -0.1291443|H,-0.46755764,1.77550797,-0.56814117|C,1.3281039,0.90655256
 ,0.15149327|H,1.97157564,1.75402475,-0.03395249|H,1.84518098,0.0660242
 4,0.59308213||Version=EM64W-G16RevC.01|HF=0.0464521|RMSD=4.729e-009|RM
 SF=5.467e-008|Dipole=-0.044081,0.0347831,-0.0000023|PG=C01 [X(C4H6)]||
 @
 The archive entry for this job was punched.


 A FOOL CAN ASK MORE QUESTIONS THAN
 A WISE MAN CAN ANSWER.
 Job cpu time:       0 days  0 hours  0 minutes  4.0 seconds.
 Elapsed time:       0 days  0 hours  0 minutes  2.7 seconds.
 File lengths (MBytes):  RWF=      6 Int=      0 D2E=      0 Chk=      2 Scr=      1
 Normal termination of Gaussian 16 at Mon Nov 10 21:22:16 2025.
 Link1:  Proceeding to internal job step number  2.
 -------------------------------------------------------------
 #N Geom=AllCheck Guess=TCheck SCRF=Check GenChk RPM6/ZDO Freq
 -------------------------------------------------------------
 1/10=4,29=7,30=1,38=1,40=1/1,3;
 2/12=2,15=1,40=1/2;
 3/5=2,14=-4,25=1,41=3900000,70=2,71=2,116=1,135=40,140=1/1,2,3;
 4/5=101,35=1/1;
 5/5=2,32=2,35=1,38=6,98=1/2;
 8/6=4,10=90,11=11/1;
 11/6=1,8=1,9=11,15=111,16=1,31=1/1,2,10;
 10/6=1,31=1/2;
 6/7=2,8=2,9=2,10=2,28=1/1;
 7/8=1,10=1,25=1,30=1/1,2,3,16;
 1/10=4,30=1/3;
 99//99;
 Structure from the checkpoint file:  "C:\Users\al6323\OneDrive - Imperial College London\Desktop\TSR20251110\butadiene_opt+freq.chk"
 -------------
 butadiene_opt
 -------------
 Charge =  0 Multiplicity = 1
 No Z-Matrix found in chk file; cartesian coordinates used.
  C                                                -0.872388290000     -0.233775210000      0.129093410000
  H                                                -1.835544310000      0.041923620000      0.568012830000
  C                                                -0.572765840000     -1.502456100000     -0.151458810000
  H                                                -1.247367540000     -2.325364460000      0.033985340000
  H                                                 0.364997730000     -1.809904500000     -0.592970230000
  C                                                 0.024545840000      0.902899550000     -0.129144300000
  H                                                -0.467557640000      1.775507970000     -0.568141170000
  C                                                 1.328103900000      0.906552560000      0.151493270000
  H                                                 1.971575640000      1.754024750000     -0.033952490000
  H                                                 1.845180980000      0.066024240000      0.593082130000
 Recover connectivity data from disk.

 GradGradGradGradGradGradGradGradGradGradGradGradGradGradGradGradGradGrad
 Berny optimization.
 Initialization pass.
 Trust Radius=3.00D-01 FncErr=1.00D-07 GrdErr=1.00D-07 EigMax=2.50D+02 EigMin=1.00D-04
 Number of steps in this run=      2 maximum allowed number of steps=      2.
 GradGradGradGradGradGradGradGradGradGradGradGradGradGradGradGradGradGrad

                          Input orientation:                          
 ---------------------------------------------------------------------
 Center     Atomic      Atomic             Coordinates (Angstroms)
 Number     Number       Type             X           Y           Z
 ---------------------------------------------------------------------
      1          6           0       -0.872388   -0.233775    0.129093
      2          1           0       -1.835544    0.041924    0.568013
      3          6           0       -0.572766   -1.502456   -0.151459
      4          1           0       -1.247368   -2.325364    0.033985
      5          1           0        0.364998   -1.809905   -0.592970
      6          6           0        0.024546    0.902900   -0.129144
      7          1           0       -0.467558    1.775508   -0.568141
      8          6           0        1.328104    0.906553    0.151493
      9          1           0        1.971576    1.754025   -0.033952
     10          1           0        1.845181    0.066024    0.593082
 ---------------------------------------------------------------------
                    Distance matrix (angstroms):
                    1          2          3          4          5
     1  C    0.000000
     2  H    1.093769   0.000000
     3  C    1.333430   2.120697   0.000000
     4  H    2.127064   2.497036   1.080118   0.000000
     5  H    2.129949   3.101537   1.081137   1.805130   0.000000
     6  C    1.470785   2.165004   2.478511   3.473624   2.773148
     7  H    2.165004   2.483455   3.306016   4.217560   3.680889
     8  C    2.478511   3.306016   3.083571   4.134265   2.976733
     9  H    3.473624   4.217560   4.134265   5.196886   3.949074
    10  H    2.773148   3.680890   2.976733   3.949074   2.667728
                    6          7          8          9         10
     6  C    0.000000
     7  H    1.093769   0.000000
     8  C    1.333430   2.120697   0.000000
     9  H    2.127064   2.497036   1.080118   0.000000
    10  H    2.129949   3.101537   1.081137   1.805130   0.000000
 Symmetry turned off by external request.
 Stoichiometry    C4H6
 Framework group  C1[X(C4H6)]
 Deg. of freedom    24
 Full point group                 C1      NOp   1
 Rotational constants (GHZ):          21.5141103           5.5946031           4.6171950
 Standard basis: VSTO-6G (5D, 7F)
    22 basis functions,   132 primitive gaussians,    22 cartesian basis functions
    11 alpha electrons       11 beta electrons
       nuclear repulsion energy        70.6105218917 Hartrees.
 Integral buffers will be    131072 words long.
 Regular integral format.
 Two-electron integral symmetry is turned off.
 Do NDO integrals.
 One-electron integrals computed using PRISM.
 NBasis=    22 RedAO= F EigKep=  0.00D+00  NBF=    22
 NBsUse=    22 1.00D-04 EigRej=  0.00D+00 NBFU=    22
 Initial guess from the checkpoint file:  "C:\Users\al6323\OneDrive - Imperial College London\Desktop\TSR20251110\butadiene_opt+freq.chk"
 B after Tr=     0.000000    0.000000    0.000000
         Rot=    1.000000    0.000000    0.000000    0.000000 Ang=   0.00 deg.
 Keep J ints in memory in canonical form, NReq=860578.
 Overlap will be assumed to be unity.
 Requested convergence on RMS density matrix=1.00D-08 within 128 cycles.
 Requested convergence on MAX density matrix=1.00D-06.
 Requested convergence on             energy=1.00D-06.
 No special actions if energy rises.
 SCF Done:  E(RPM6) =  0.464520760492E-01 A.U. after    2 cycles
            NFock=  1  Conv=0.51D-09     -V/T= 1.0014
 Range of M.O.s used for correlation:     1    22
 NBasis=    22 NAE=    11 NBE=    11 NFC=     0 NFV=     0
 NROrb=     22 NOA=    11 NOB=    11 NVA=    11 NVB=    11
 Symmetrizing basis deriv contribution to polar:
 IMax=3 JMax=2 DiffMx= 0.00D+00
 G2DrvN: will do    11 centers at a time, making    1 passes.
 Calling FoFCou, ICntrl=  3107 FMM=F I1Cent=   0 AccDes= 0.00D+00.
 End of G2Drv F.D. properties file   721 does not exist.
 End of G2Drv F.D. properties file   722 does not exist.
 End of G2Drv F.D. properties file   788 does not exist.
          IDoAtm=1111111111
          Differentiating once with respect to electric field.
                with respect to dipole field.
          Differentiating once with respect to nuclear coordinates.
          Electric field/nuclear overlap derivatives assumed to be zero.
 Keep J ints in memory in canonical form, NReq=861699.
          There are    33 degrees of freedom in the 1st order CPHF.  IDoFFX=5 NUNeed=    33.
 LinEq1:  Iter=  0 NonCon=    33 RMS=3.54D-01 Max=2.49D+00 NDo=    33
 AX will form    33 AO Fock derivatives at one time.
 LinEq1:  Iter=  1 NonCon=    33 RMS=5.23D-02 Max=2.92D-01 NDo=    33
 LinEq1:  Iter=  2 NonCon=    33 RMS=1.08D-02 Max=6.99D-02 NDo=    33
 LinEq1:  Iter=  3 NonCon=    33 RMS=1.72D-03 Max=4.46D-03 NDo=    33
 LinEq1:  Iter=  4 NonCon=    33 RMS=1.93D-04 Max=6.64D-04 NDo=    33
 LinEq1:  Iter=  5 NonCon=    33 RMS=1.88D-05 Max=7.72D-05 NDo=    33
 LinEq1:  Iter=  6 NonCon=    33 RMS=2.19D-06 Max=8.17D-06 NDo=    33
 LinEq1:  Iter=  7 NonCon=    15 RMS=3.07D-07 Max=9.03D-07 NDo=    33
 LinEq1:  Iter=  8 NonCon=     2 RMS=3.32D-08 Max=1.08D-07 NDo=    15
 LinEq1:  Iter=  9 NonCon=     0 RMS=3.54D-09 Max=1.07D-08 NDo=     2
 Linear equations converged to 1.000D-08 1.000D-07 after     9 iterations.
 Isotropic polarizability for W=    0.000000       32.68 Bohr**3.
 End of Minotr F.D. properties file   721 does not exist.
 End of Minotr F.D. properties file   722 does not exist.
 End of Minotr F.D. properties file   788 does not exist.

 **********************************************************************

            Population analysis using the SCF Density.

 **********************************************************************

 Alpha  occ. eigenvalues --   -1.03431  -0.94201  -0.80282  -0.68312  -0.61423
 Alpha  occ. eigenvalues --   -0.54482  -0.53671  -0.47185  -0.43499  -0.41333
 Alpha  occ. eigenvalues --   -0.35900
 Alpha virt. eigenvalues --    0.01944   0.06360   0.15998   0.19574   0.21084
 Alpha virt. eigenvalues --    0.21446   0.21753   0.23287   0.23334   0.23590
 Alpha virt. eigenvalues --    0.24262
          Condensed to atoms (all electrons):
               1          2          3          4          5          6
     1  C    4.112718   0.000000   0.000000   0.000000   0.000000   0.000000
     2  H    0.000000   0.858773   0.000000   0.000000   0.000000   0.000000
     3  C    0.000000   0.000000   4.331126   0.000000   0.000000   0.000000
     4  H    0.000000   0.000000   0.000000   0.851162   0.000000   0.000000
     5  H    0.000000   0.000000   0.000000   0.000000   0.846221   0.000000
     6  C    0.000000   0.000000   0.000000   0.000000   0.000000   4.112718
     7  H    0.000000   0.000000   0.000000   0.000000   0.000000   0.000000
     8  C    0.000000   0.000000   0.000000   0.000000   0.000000   0.000000
     9  H    0.000000   0.000000   0.000000   0.000000   0.000000   0.000000
    10  H    0.000000   0.000000   0.000000   0.000000   0.000000   0.000000
               7          8          9         10
     1  C    0.000000   0.000000   0.000000   0.000000
     2  H    0.000000   0.000000   0.000000   0.000000
     3  C    0.000000   0.000000   0.000000   0.000000
     4  H    0.000000   0.000000   0.000000   0.000000
     5  H    0.000000   0.000000   0.000000   0.000000
     6  C    0.000000   0.000000   0.000000   0.000000
     7  H    0.858773   0.000000   0.000000   0.000000
     8  C    0.000000   4.331126   0.000000   0.000000
     9  H    0.000000   0.000000   0.851162   0.000000
    10  H    0.000000   0.000000   0.000000   0.846221
 Mulliken charges:
               1
     1  C   -0.112718
     2  H    0.141227
     3  C   -0.331126
     4  H    0.148838
     5  H    0.153779
     6  C   -0.112718
     7  H    0.141227
     8  C   -0.331126
     9  H    0.148838
    10  H    0.153779
 Sum of Mulliken charges =   0.00000
 Mulliken charges with hydrogens summed into heavy atoms:
               1
     1  C    0.028510
     3  C   -0.028510
     6  C    0.028510
     8  C   -0.028510
 APT charges:
               1
     1  C   -0.085377
     2  H    0.149131
     3  C   -0.427441
     4  H    0.195533
     5  H    0.168148
     6  C   -0.085378
     7  H    0.149131
     8  C   -0.427441
     9  H    0.195532
    10  H    0.168148
 Sum of APT charges =  -0.00002
 APT charges with hydrogens summed into heavy atoms:
               1
     1  C    0.063753
     3  C   -0.063761
     6  C    0.063754
     8  C   -0.063761
 Charge=              0.0000 electrons
 Dipole moment (field-independent basis, Debye):
    X=             -0.1120    Y=              0.0884    Z=              0.0000  Tot=              0.1427
 N-N= 7.061052189170D+01 E-N=-9.426151555651D+01  KE=-3.319228684309D+01
  Exact polarizability:      41.729       6.494      44.836       2.755       3.489      11.471
 Approx polarizability:      29.582       0.522      29.831       1.446       1.832       7.313
 Calling FoFJK, ICntrl=    100127 FMM=F ISym2X=0 I1Cent= 0 IOpClX= 0 NMat=1 NMatS=1 NMatT=0.
 Full mass-weighted force constant matrix:
 Low frequencies ---   -2.2918   -0.3949   -0.2518    0.2937    1.2968    3.2385
 Low frequencies ---   77.9566  281.9628  431.3605
 Diagonal vibrational polarizability:
        2.5273652       2.2435830       5.6723688
 Harmonic frequencies (cm**-1), IR intensities (KM/Mole), Raman scattering
 activities (A**4/AMU), depolarization ratios for plane and unpolarized
 incident light, reduced masses (AMU), force constants (mDyne/A),
 and normal coordinates:
                      1                      2                      3
                      A                      A                      A
 Frequencies --     77.9566               281.9628               431.3605
 Red. masses --      1.6802                 2.2352                 1.3833
 Frc consts  --      0.0060                 0.1047                 0.1516
 IR Inten    --      0.1995                 0.7316                 7.4256
  Atom  AN      X      Y      Z        X      Y      Z        X      Y      Z
     1   6     0.06  -0.02   0.11     0.05  -0.06  -0.08     0.09   0.00  -0.07
     2   1     0.22   0.00   0.44    -0.01   0.05  -0.24     0.20  -0.01   0.20
     3   6    -0.09  -0.01  -0.08    -0.17  -0.13   0.02    -0.01  -0.05   0.04
     4   1    -0.06   0.00   0.07    -0.41   0.04  -0.07     0.03   0.01   0.49
     5   1    -0.24  -0.02  -0.40    -0.16  -0.37   0.21    -0.22  -0.17  -0.30
     6   6     0.04  -0.05  -0.11     0.07  -0.04   0.08    -0.02   0.09  -0.07
     7   1     0.05  -0.22  -0.44    -0.05   0.00   0.24    -0.05   0.19   0.20
     8   6    -0.01   0.09   0.08     0.09   0.19  -0.02    -0.04  -0.02   0.04
     9   1    -0.01   0.06  -0.07    -0.14   0.39   0.07     0.00   0.04   0.49
    10   1    -0.04   0.24   0.40     0.33   0.24  -0.21    -0.11  -0.25  -0.30
                      4                      5                      6
                      A                      A                      A
 Frequencies --    601.6926               675.2133               915.3974
 Red. masses --      1.7109                 1.3262                 1.5077
 Frc consts  --      0.3649                 0.3562                 0.7444
 IR Inten    --      1.8407                 0.5698                 5.0034
  Atom  AN      X      Y      Z        X      Y      Z        X      Y      Z
     1   6     0.16  -0.02   0.03    -0.03   0.00  -0.11    -0.06  -0.06   0.02
     2   1     0.08  -0.09  -0.07    -0.04  -0.06  -0.08    -0.04   0.06  -0.02
     3   6    -0.01  -0.06  -0.02     0.00  -0.03   0.00    -0.09  -0.09   0.02
     4   1    -0.36   0.16  -0.29     0.17  -0.05   0.53     0.33  -0.43  -0.16
     5   1     0.02  -0.36   0.27    -0.18  -0.04  -0.36     0.09   0.38  -0.01
     6   6    -0.06   0.15   0.03     0.00   0.03   0.11     0.04   0.07  -0.02
     7   1    -0.10   0.06  -0.07     0.05   0.05   0.08    -0.06   0.02   0.02
     8   6    -0.06  -0.02  -0.02     0.03   0.01   0.00     0.06   0.10  -0.02
     9   1     0.24  -0.32  -0.29     0.09  -0.15  -0.53     0.49  -0.22   0.16
    10   1    -0.36  -0.07   0.27     0.00   0.18   0.36    -0.35  -0.18   0.01
                      7                      8                      9
                      A                      A                      A
 Frequencies --    935.3407               972.9772              1038.6905
 Red. masses --      1.1660                 1.3854                 1.5463
 Frc consts  --      0.6010                 0.7727                 0.9829
 IR Inten    --     28.9889                 4.7874                38.7163
  Atom  AN      X      Y      Z        X      Y      Z        X      Y      Z
     1   6    -0.02   0.01  -0.07    -0.06   0.00  -0.11    -0.11   0.00   0.00
     2   1     0.26   0.02   0.54     0.22  -0.14   0.60    -0.06  -0.20   0.19
     3   6    -0.01  -0.01   0.03     0.01  -0.02   0.02     0.09   0.06  -0.04
     4   1    -0.01  -0.06  -0.23    -0.03  -0.01  -0.08    -0.26   0.35   0.20
     5   1     0.12   0.08   0.22     0.08  -0.07   0.20    -0.06  -0.39   0.08
     6   6     0.01  -0.02  -0.07    -0.01   0.06   0.11     0.02  -0.10   0.00
     7   1    -0.04   0.26   0.54     0.19  -0.18  -0.60    -0.18  -0.11   0.19
     8   6    -0.01  -0.01   0.03     0.02   0.00  -0.02     0.04   0.10  -0.04
     9   1    -0.05  -0.02  -0.23     0.00   0.04   0.08     0.40  -0.17   0.20
    10   1     0.05   0.14   0.22     0.08  -0.06  -0.20    -0.36  -0.14   0.08
                     10                     11                     12
                      A                      A                      A
 Frequencies --   1045.1683              1046.8649              1136.8679
 Red. masses --      1.3422                 1.3379                 1.6113
 Frc consts  --      0.8638                 0.8639                 1.2270
 IR Inten    --     18.0919               134.8454                 0.0673
  Atom  AN      X      Y      Z        X      Y      Z        X      Y      Z
     1   6     0.01   0.00   0.03     0.02   0.00   0.03     0.12   0.05  -0.09
     2   1     0.01   0.02   0.02     0.03   0.00   0.04     0.29   0.55   0.02
     3   6    -0.04   0.02  -0.11    -0.06   0.01  -0.10    -0.03   0.04   0.02
     4   1     0.19  -0.05   0.43     0.20  -0.08   0.42     0.05   0.01   0.01
     5   1     0.20  -0.06   0.46     0.21  -0.02   0.46     0.07   0.28   0.01
     6   6     0.01  -0.01  -0.03    -0.01   0.02   0.03    -0.02  -0.13   0.09
     7   1    -0.01  -0.02  -0.02     0.00   0.03   0.04    -0.47  -0.41  -0.02
     8   6    -0.03   0.04   0.11     0.02  -0.05  -0.10    -0.05   0.02  -0.02
     9   1     0.09  -0.17  -0.43    -0.13   0.18   0.42     0.00  -0.05  -0.01
    10   1     0.11  -0.18  -0.46    -0.07   0.20   0.46    -0.26  -0.13  -0.01
                     13                     14                     15
                      A                      A                      A
 Frequencies --   1259.3609              1285.9667              1328.6419
 Red. masses --      1.1426                 1.3861                 1.0874
 Frc consts  --      1.0677                 1.3505                 1.1309
 IR Inten    --      0.3138                 0.2117                10.9207
  Atom  AN      X      Y      Z        X      Y      Z        X      Y      Z
     1   6    -0.03  -0.03   0.03    -0.10  -0.04   0.03     0.01  -0.04   0.00
     2   1     0.15   0.65  -0.01     0.09   0.57   0.00     0.05   0.13  -0.02
     3   6     0.05  -0.03  -0.03     0.06  -0.02  -0.02     0.01  -0.04  -0.01
     4   1     0.03  -0.03  -0.02     0.06  -0.06  -0.04    -0.35   0.30   0.18
     5   1    -0.02  -0.23  -0.01    -0.08  -0.36  -0.03     0.17   0.45  -0.02
     6   6    -0.02  -0.04   0.03     0.02   0.11  -0.03    -0.04   0.00   0.00
     7   1     0.59   0.30  -0.01    -0.54  -0.22   0.00     0.12   0.08  -0.02
     8   6    -0.04   0.04  -0.03     0.03  -0.05   0.02    -0.04   0.00  -0.01
     9   1    -0.04   0.03  -0.02     0.07  -0.05   0.04     0.37  -0.27   0.18
    10   1    -0.22  -0.07  -0.01     0.33   0.16   0.03     0.40   0.27  -0.02
                     16                     17                     18
                      A                      A                      A
 Frequencies --   1350.5171              1778.4143              1789.4472
 Red. masses --      1.2725                 8.4041                 9.0933
 Frc consts  --      1.3675                15.6605                17.1558
 IR Inten    --     24.4813                 2.3339                 0.9385
  Atom  AN      X      Y      Z        X      Y      Z        X      Y      Z
     1   6    -0.05  -0.06   0.02    -0.09   0.41   0.07     0.01   0.47   0.06
     2   1     0.01   0.11   0.00    -0.19  -0.15   0.09    -0.15   0.13   0.09
     3   6     0.03  -0.06  -0.02     0.09  -0.37  -0.08     0.08  -0.36  -0.08
     4   1    -0.38   0.31   0.20    -0.15  -0.14   0.07    -0.11  -0.15   0.02
     5   1     0.17   0.41  -0.02     0.20  -0.01  -0.09     0.21  -0.02  -0.07
     6   6     0.05   0.07  -0.02     0.42   0.00   0.07    -0.45  -0.12  -0.06
     7   1    -0.10  -0.03   0.00    -0.10  -0.22   0.09    -0.16   0.12  -0.09
     8   6     0.07  -0.01   0.02    -0.38   0.00  -0.08     0.37   0.01   0.08
     9   1    -0.39   0.30  -0.20    -0.10  -0.18   0.07     0.12   0.15  -0.02
    10   1    -0.36  -0.26   0.02    -0.06   0.19  -0.09     0.07  -0.19   0.07
                     19                     20                     21
                      A                      A                      A
 Frequencies --   2721.5617              2723.5999              2746.5519
 Red. masses --      1.0803                 1.0833                 1.0829
 Frc consts  --      4.7144                 4.7345                 4.8128
 IR Inten    --     34.3542                 0.0501                73.6350
  Atom  AN      X      Y      Z        X      Y      Z        X      Y      Z
     1   6     0.02  -0.01  -0.01     0.02  -0.01  -0.01    -0.04   0.01   0.02
     2   1    -0.34   0.10   0.16    -0.30   0.09   0.14     0.52  -0.15  -0.24
     3   6    -0.05  -0.01   0.02    -0.05  -0.01   0.02    -0.03  -0.01   0.01
     4   1     0.23   0.32  -0.06     0.25   0.34  -0.06     0.17   0.24  -0.04
     5   1     0.37  -0.15  -0.18     0.37  -0.15  -0.18     0.20  -0.09  -0.10
     6   6    -0.01   0.02  -0.01     0.02  -0.01   0.01     0.02  -0.04   0.02
     7   1     0.18  -0.31   0.16    -0.15   0.28  -0.14    -0.27   0.47  -0.24
     8   6     0.00  -0.05   0.02     0.00   0.05  -0.02     0.00  -0.03   0.01
     9   1     0.25   0.29  -0.06    -0.28  -0.32   0.06     0.19   0.23  -0.04
    10   1    -0.23   0.33  -0.18     0.23  -0.33   0.18    -0.13   0.18  -0.10
                     22                     23                     24
                      A                      A                      A
 Frequencies --   2752.6183              2784.5598              2790.5941
 Red. masses --      1.0854                 1.0550                 1.0544
 Frc consts  --      4.8452                 4.8196                 4.8380
 IR Inten    --    128.3551               140.9270                74.7391
  Atom  AN      X      Y      Z        X      Y      Z        X      Y      Z
     1   6    -0.04   0.02   0.02     0.00   0.00   0.00     0.00   0.00   0.00
     2   1     0.54  -0.16  -0.25     0.04  -0.01  -0.02     0.01  -0.01  -0.01
     3   6    -0.03  -0.01   0.01    -0.01   0.04   0.01    -0.01   0.04   0.01
     4   1     0.14   0.20  -0.04    -0.31  -0.38   0.09    -0.31  -0.38   0.09
     5   1     0.19  -0.08  -0.09     0.43  -0.14  -0.20     0.43  -0.14  -0.20
     6   6    -0.03   0.04  -0.02     0.00   0.00   0.00     0.00   0.00   0.00
     7   1     0.28  -0.49   0.25    -0.02   0.04  -0.02     0.01  -0.01   0.01
     8   6     0.00   0.03  -0.01     0.05   0.00   0.01    -0.04   0.00  -0.01
     9   1    -0.16  -0.19   0.04    -0.30  -0.39   0.09     0.30   0.39  -0.09
    10   1     0.12  -0.17   0.09    -0.24   0.38  -0.20     0.24  -0.39   0.20

 -------------------
 - Thermochemistry -
 -------------------
 Temperature   298.150 Kelvin.  Pressure   1.00000 Atm.
 Atom     1 has atomic number  6 and mass  12.00000
 Atom     2 has atomic number  1 and mass   1.00783
 Atom     3 has atomic number  6 and mass  12.00000
 Atom     4 has atomic number  1 and mass   1.00783
 Atom     5 has atomic number  1 and mass   1.00783
 Atom     6 has atomic number  6 and mass  12.00000
 Atom     7 has atomic number  1 and mass   1.00783
 Atom     8 has atomic number  6 and mass  12.00000
 Atom     9 has atomic number  1 and mass   1.00783
 Atom    10 has atomic number  1 and mass   1.00783
 Molecular mass:    54.04695 amu.
 Principal axes and moments of inertia in atomic units:
                           1         2         3
     Eigenvalues --    83.88640 322.58610 390.87394
           X            0.61899   0.78504  -0.02398
           Y            0.78445  -0.61945  -0.03032
           Z            0.03865   0.00004   0.99925
 This molecule is an asymmetric top.
 Rotational symmetry number  1.
 Rotational temperatures (Kelvin)      1.03251     0.26850     0.22159
 Rotational constants (GHZ):          21.51411     5.59460     4.61719
 Zero-point vibrational energy     206184.3 (Joules/Mol)
                                   49.27924 (Kcal/Mol)
 Warning -- explicit consideration of   4 degrees of freedom as
           vibrations may cause significant error
 Vibrational temperatures:    112.16   405.68   620.63   865.70   971.48
          (Kelvin)           1317.05  1345.75  1399.90  1494.44  1503.76
                             1506.21  1635.70  1811.94  1850.22  1911.62
                             1943.09  2558.74  2574.62  3915.72  3918.65
                             3951.68  3960.40  4006.36  4015.04
 
 Zero-point correction=                           0.078531 (Hartree/Particle)
 Thermal correction to Energy=                    0.083448
 Thermal correction to Enthalpy=                  0.084392
 Thermal correction to Gibbs Free Energy=         0.051314
 Sum of electronic and zero-point Energies=              0.124984
 Sum of electronic and thermal Energies=                 0.129900
 Sum of electronic and thermal Enthalpies=               0.130844
 Sum of electronic and thermal Free Energies=            0.097766
 
                     E (Thermal)             CV                S
                      KCal/Mol        Cal/Mol-Kelvin    Cal/Mol-Kelvin
 Total                   52.365             16.168             69.619
 Electronic               0.000              0.000              0.000
 Translational            0.889              2.981             37.884
 Rotational               0.889              2.981             23.874
 Vibrational             50.587             10.206              7.862
 Vibration     1          0.599              1.964              3.942
 Vibration     2          0.681              1.707              1.522
 Vibration     3          0.792              1.402              0.854
 Vibration     4          0.960              1.028              0.447
                       Q            Log10(Q)             Ln(Q)
 Total Bot       0.249608D-23        -23.602741        -54.347320
 Total V=0       0.330515D+13         12.519191         28.826503
 Vib (Bot)       0.434126D-35        -35.362384        -81.424899
 Vib (Bot)    1  0.264259D+01          0.422031          0.971761
 Vib (Bot)    2  0.681161D+00         -0.166750         -0.383957
 Vib (Bot)    3  0.403499D+00         -0.394158         -0.907582
 Vib (Bot)    4  0.247734D+00         -0.606015         -1.395401
 Vib (V=0)       0.574841D+01          0.759548          1.748923
 Vib (V=0)    1  0.318948D+01          0.503720          1.159858
 Vib (V=0)    2  0.134497D+01          0.128714          0.296374
 Vib (V=0)    3  0.114250D+01          0.057858          0.133222
 Vib (V=0)    4  0.105801D+01          0.024489          0.056387
 Electronic      0.100000D+01          0.000000          0.000000
 Translational   0.156175D+08          7.193611         16.563901
 Rotational      0.368157D+05          4.566033         10.513679
 -------------------------------------------------------------------
 Center     Atomic                   Forces (Hartrees/Bohr)
 Number     Number              X              Y              Z
 -------------------------------------------------------------------
      1        6           0.000000046   -0.000000063   -0.000000032
      2        1           0.000000085   -0.000000026   -0.000000039
      3        6          -0.000000010    0.000000110    0.000000023
      4        1           0.000000039    0.000000046   -0.000000013
      5        1          -0.000000079    0.000000031    0.000000036
      6        6           0.000000095   -0.000000042    0.000000043
      7        1           0.000000039   -0.000000062    0.000000032
      8        6          -0.000000139   -0.000000007   -0.000000028
      9        1          -0.000000034   -0.000000041    0.000000009
     10        1          -0.000000043    0.000000053   -0.000000030
 -------------------------------------------------------------------
 Cartesian Forces:  Max     0.000000139 RMS     0.000000055

 GradGradGradGradGradGradGradGradGradGradGradGradGradGradGradGradGradGrad
 Berny optimization.
 Search for a local minimum.
 Step number   1 out of a maximum of    2
 All quantities printed in internal units (Hartrees-Bohrs-Radians)
 Second derivative matrix not updated -- analytic derivatives used.
 ITU=  0
     Eigenvalues ---    0.00039   0.00682   0.01050   0.02285   0.02774
     Eigenvalues ---    0.05125   0.05272   0.07079   0.07373   0.09369
     Eigenvalues ---    0.11602   0.12182   0.14996   0.18720   0.23744
     Eigenvalues ---    0.25169   0.34990   0.45212   0.52055   0.60666
     Eigenvalues ---    0.62260   0.77426   1.50154   1.52292
 Angle between quadratic step and forces=  90.00 degrees.
 Linear search not attempted -- first point.
 B after Tr=     0.000000    0.000000    0.000000
         Rot=    1.000000    0.000000    0.000000    0.000000 Ang=   0.00 deg.
 Variable       Old X    -DE/DX   Delta X   Delta X   Delta X     New X
                                 (Linear)    (Quad)   (Total)
    X1       -1.64857   0.00000   0.00000   0.00000   0.00000  -1.64857
    Y1       -0.44177   0.00000   0.00000   0.00000   0.00000  -0.44177
    Z1        0.24395   0.00000   0.00000   0.00000   0.00000   0.24395
    X2       -3.46868   0.00000   0.00000   0.00000   0.00000  -3.46868
    Y2        0.07922   0.00000   0.00000   0.00000   0.00000   0.07922
    Z2        1.07339   0.00000   0.00000   0.00000   0.00000   1.07339
    X3       -1.08237   0.00000   0.00000   0.00000   0.00000  -1.08237
    Y3       -2.83923   0.00000   0.00000   0.00000   0.00000  -2.83923
    Z3       -0.28622   0.00000   0.00000   0.00000   0.00000  -0.28622
    X4       -2.35718   0.00000   0.00000   0.00000   0.00000  -2.35718
    Y4       -4.39430   0.00000   0.00000   0.00000   0.00000  -4.39430
    Z4        0.06422   0.00000   0.00000   0.00000   0.00000   0.06422
    X5        0.68975   0.00000   0.00000   0.00000   0.00000   0.68975
    Y5       -3.42022   0.00000   0.00000   0.00000   0.00000  -3.42022
    Z5       -1.12055   0.00000   0.00000   0.00000   0.00000  -1.12055
    X6        0.04638   0.00000   0.00000   0.00000   0.00000   0.04638
    Y6        1.70623   0.00000   0.00000   0.00000   0.00000   1.70623
    Z6       -0.24405   0.00000   0.00000   0.00000   0.00000  -0.24405
    X7       -0.88356   0.00000   0.00000   0.00000   0.00000  -0.88356
    Y7        3.35522   0.00000   0.00000   0.00000   0.00000   3.35522
    Z7       -1.07363   0.00000   0.00000   0.00000   0.00000  -1.07363
    X8        2.50975   0.00000   0.00000   0.00000   0.00000   2.50975
    Y8        1.71314   0.00000   0.00000   0.00000   0.00000   1.71314
    Z8        0.28628   0.00000   0.00000   0.00000   0.00000   0.28628
    X9        3.72574   0.00000   0.00000   0.00000   0.00000   3.72574
    Y9        3.31463   0.00000   0.00000   0.00000   0.00000   3.31463
    Z9       -0.06416   0.00000   0.00000   0.00000   0.00000  -0.06416
   X10        3.48689   0.00000   0.00000   0.00000   0.00000   3.48689
   Y10        0.12477   0.00000   0.00000   0.00000   0.00000   0.12477
   Z10        1.12076   0.00000   0.00000   0.00000   0.00000   1.12076
         Item               Value     Threshold  Converged?
 Maximum Force            0.000000     0.000450     YES
 RMS     Force            0.000000     0.000300     YES
 Maximum Displacement     0.000001     0.001800     YES
 RMS     Displacement     0.000000     0.001200     YES
 Predicted change in Energy=-1.218167D-13
 Optimization completed.
    -- Stationary point found.
 GradGradGradGradGradGradGradGradGradGradGradGradGradGradGradGradGradGrad


 ----------------------------------------------------------------------

 Electric dipole moment (input orientation):
 (Debye = 10**-18 statcoulomb cm , SI units = C m)
                  (au)            (Debye)         (10**-30 SI)
   Tot        0.561516D-01      0.142723D+00      0.476073D+00
   x         -0.440810D-01     -0.112043D+00     -0.373734D+00
   y          0.347831D-01      0.884099D-01      0.294904D+00
   z          0.000000D+00      0.000000D+00      0.000000D+00

 Dipole polarizability, Alpha (input orientation).
 (esu units = cm**3 , SI units = C**2 m**2 J**-1)
 Alpha(0;0):
               (au)            (10**-24 esu)      (10**-40 SI)
   iso        0.326787D+02      0.484249D+01      0.538799D+01
   aniso      0.347136D+02      0.514402D+01      0.572350D+01
   xx         0.417295D+02      0.618367D+01      0.688026D+01
   yx         0.649428D+01      0.962352D+00      0.107076D+01
   yy         0.448357D+02      0.664396D+01      0.739240D+01
   zx         0.275473D+01      0.408208D+00      0.454193D+00
   zy         0.348939D+01      0.517075D+00      0.575323D+00
   zz         0.114710D+02      0.169983D+01      0.189131D+01

 First dipole hyperpolarizability, Beta (input orientation).
 ||, _|_  parallel and perpendicular components, (z) with respect to z axis,
 vector components x,y,z.  Values do not include the 1/n! factor of 1/2.
 (esu units = statvolt**-1 cm**4 , SI units = C**3 m**3 J**-2)
 Beta(0;0,0):
               (au)            (10**-30 esu)      (10**-50 SI)
   || (z)    -0.105865D-03     -0.914592D-06     -0.339442D-06
   _|_(z)    -0.352884D-04     -0.304864D-06     -0.113147D-06
   x         -0.994640D+01     -0.859291D-01     -0.318917D-01
   y          0.784842D+01      0.678042D-01      0.251649D-01
   z         -0.529326D-03     -0.457296D-05     -0.169721D-05
   ||         0.253400D+01      0.218918D-01      0.812491D-02
   xxx       -0.145494D+01     -0.125695D-01     -0.466506D-02
   xxy        0.165995D+01      0.143407D-01      0.532239D-02
   yxy       -0.118770D+01     -0.102608D-01     -0.380818D-02
   yyy        0.425714D+00      0.367784D-02      0.136499D-02
   xxz       -0.399344D+01     -0.345002D-01     -0.128044D-01
   yxz       -0.954837D+00     -0.824905D-02     -0.306155D-02
   yyz        0.399337D+01      0.344996D-01      0.128042D-01
   zxz       -0.672831D+00     -0.581274D-02     -0.215734D-02
   zyz        0.530478D+00      0.458292D-02      0.170090D-02
   zzz       -0.107268D-03     -0.926710D-06     -0.343939D-06

 ----------------------------------------------------------------------

 Dipole orientation:
     6         -0.65587573         -1.22508394          1.02052419
     1         -0.44973352         -2.30294391          2.77206462
     6         -2.02073744         -2.09878995         -0.90905253
     1         -2.99101664         -3.89416055         -0.87158435
     1         -2.27831403         -1.07820598         -2.66008881
     6          0.65597166          1.22522401          1.02052367
     1          0.44982895          2.30308492          2.77206340
     6          2.02083394          2.09892893         -0.90905317
     1          2.99111319          3.89429949         -0.87158576
     1          2.27841107          1.07834404         -2.66008876

 Electric dipole moment (dipole orientation):
 (Debye = 10**-18 statcoulomb cm , SI units = C m)
                  (au)            (Debye)         (10**-30 SI)
   Tot        0.561516D-01      0.142723D+00      0.476073D+00
   x          0.000000D+00      0.000000D+00      0.000000D+00
   y          0.000000D+00      0.000000D+00      0.000000D+00
   z          0.561516D-01      0.142723D+00      0.476073D+00

 Dipole polarizability, Alpha (dipole orientation).
 (esu units = cm**3 , SI units = C**2 m**2 J**-1)
 Alpha(0;0):
               (au)            (10**-24 esu)      (10**-40 SI)
   iso        0.326787D+02      0.484249D+01      0.538799D+01
   aniso      0.347136D+02      0.514402D+01      0.572350D+01
   xx         0.305638D+02      0.452909D+01      0.503929D+01
   yx         0.197507D+02      0.292676D+01      0.325646D+01
   yy         0.308672D+02      0.457405D+01      0.508931D+01
   zx         0.000000D+00      0.000000D+00      0.000000D+00
   zy         0.000000D+00      0.000000D+00      0.000000D+00
   zz         0.366052D+02      0.542433D+01      0.603538D+01

 First dipole hyperpolarizability, Beta (dipole orientation).
 ||, _|_  parallel and perpendicular components, (z) with respect to z axis,
 vector components x,y,z.  Values do not include the 1/n! factor of 1/2.
 (esu units = statvolt**-1 cm**4 , SI units = C**3 m**3 J**-2)
 Beta(0;0,0):
               (au)            (10**-30 esu)      (10**-50 SI)
   || (z)     0.253400D+01      0.218918D-01      0.812491D-02
   _|_(z)     0.844666D+00      0.729725D-02      0.270830D-02
   x         -0.125196D-04     -0.108159D-06     -0.401423D-07
   y         -0.102478D-04     -0.885327D-07     -0.328580D-07
   z          0.126700D+02      0.109459D+00      0.406245D-01
   ||         0.253400D+01      0.218918D-01      0.812491D-02
   xxx        0.000000D+00      0.000000D+00      0.000000D+00
   xxy        0.000000D+00      0.000000D+00      0.000000D+00
   yxy        0.000000D+00      0.000000D+00      0.000000D+00
   yyy        0.000000D+00      0.000000D+00      0.000000D+00
   xxz        0.436296D+01      0.376926D-01      0.139892D-01
   yxz        0.337413D+00      0.291499D-02      0.108187D-02
   yyz       -0.391913D+01     -0.338582D-01     -0.125661D-01
   zxz        0.000000D+00      0.000000D+00      0.000000D+00
   zyz        0.000000D+00      0.000000D+00      0.000000D+00
   zzz        0.377950D+01      0.326519D-01      0.121184D-01

 ----------------------------------------------------------------------
 Unable to Open any file for archive entry.
 1|1|UNPC-SKCH-134-016|Freq|RPM6|ZDO|C4H6|AL6323|10-Nov-2025|0||#N Geom
 =AllCheck Guess=TCheck SCRF=Check GenChk RPM6/ZDO Freq||butadiene_opt|
 |0,1|C,-0.87238829,-0.23377521,0.12909341|H,-1.83554431,0.04192362,0.5
 6801283|C,-0.57276584,-1.5024561,-0.15145881|H,-1.24736754,-2.32536446
 ,0.03398534|H,0.36499773,-1.8099045,-0.59297023|C,0.02454584,0.9028995
 5,-0.1291443|H,-0.46755764,1.77550797,-0.56814117|C,1.3281039,0.906552
 56,0.15149327|H,1.97157564,1.75402475,-0.03395249|H,1.84518098,0.06602
 424,0.59308213||Version=EM64W-G16RevC.01|HF=0.0464521|RMSD=5.116e-010|
 RMSF=5.460e-008|ZeroPoint=0.0785315|Thermal=0.0834482|ETot=0.1299002|H
 Tot=0.1308444|GTot=0.097766|Dipole=-0.044081,0.0347831,-0.0000023|Dipo
 leDeriv=-0.0985067,0.1323865,0.0118007,0.1119114,-0.0286217,-0.008578,
 -0.0143632,0.0064093,-0.1290032,0.1965759,-0.0799239,-0.0212947,-0.040
 8336,0.0819581,0.0129351,-0.0419509,0.0350075,0.1688581,-0.3967882,-0.
 030951,0.0015662,-0.0988692,-0.4736475,0.0012038,-0.0037858,-0.0200046
 ,-0.4118874,0.1846944,0.1156603,0.0285576,0.0487624,0.2347269,-0.00006
 43,0.0086089,-0.0383552,0.1671765,0.1552492,-0.1221195,-0.0312681,-0.0
 163057,0.1443425,0.0029021,0.0078712,0.0513579,0.2048509,-0.087658,0.1
 145054,-0.0110904,0.1349798,-0.0394713,0.0094861,0.0095696,-0.0124759,
 -0.1290032,0.115467,-0.0602242,0.0175325,-0.0993128,0.1630614,-0.01770
 85,0.0438055,-0.032663,0.1688647,-0.4401264,-0.1092324,0.0008104,-0.04
 13152,-0.4303095,0.0018012,-0.0185753,-0.0083405,-0.4118882,0.1948321,
 0.0511837,-0.0067051,0.1180808,0.224591,0.0277645,-0.0393099,-0.000546
 7,0.1671721,0.1762412,-0.0112919,0.0100928,-0.1170937,0.1233483,-0.029
 7395,0.0481234,0.0196027,0.2048552|Polar=41.7294938,6.4942759,44.83566
 23,2.7547257,3.489394,11.4710012|HyperPolar=-1.4549379,1.6599473,-1.18
 76963,0.4257142,-3.9934439,-0.9548369,3.9933748,-0.672831,0.5304781,-0
 .0001073|PG=C01 [X(C4H6)]|NImag=0||0.45562409,-0.04252534,0.88087965,-
 0.12636982,0.09871271,0.20875572,-0.17645489,0.04268478,0.06183402,0.2
 1604662,0.03956695,-0.04465360,-0.01561142,-0.04806455,0.06860819,0.06
 096161,-0.01524445,-0.07100943,-0.08754948,0.02464605,0.06296654,-0.09
 791006,0.11486325,0.03062966,-0.01178827,0.02980352,0.01175032,0.39767
 103,0.12510930,-0.55592057,-0.11518795,0.01606692,-0.01937246,-0.01063
 807,-0.07928983,0.82415440,0.03123208,-0.11241181,-0.08399725,0.009655
 18,-0.01564493,0.00047554,-0.12418982,0.12049885,0.19696526,0.00511198
 ,-0.00227462,-0.00017654,0.00030571,0.00063739,-0.00163886,-0.11241968
 ,-0.09224880,0.01869645,0.12346994,-0.01737816,-0.04245853,0.00124389,
 0.00055369,-0.00051281,0.00013707,-0.08926640,-0.14310571,0.02553856,0
 .10782618,0.18468153,-0.00268104,-0.00414954,0.00606352,-0.00162626,0.
 00000671,-0.00293674,0.01920393,0.02656360,-0.04644579,-0.02974189,-0.
 02590075,0.03177993,-0.00969026,0.01598751,0.00912846,0.00100487,0.000
 25316,0.00352178,-0.18037663,0.04647339,0.06501123,-0.01800156,-0.0019
 8172,0.01110147,0.20776404,0.02986840,-0.01946676,-0.01599848,0.000281
 53,-0.00256777,-0.00158895,0.04440790,-0.04955286,-0.01968414,-0.01400
 024,0.00378714,0.00537346,-0.06097243,0.06902637,0.01164080,-0.0095358
 3,0.00072627,0.00345609,-0.00142111,0.00754960,0.06489700,-0.02109648,
 -0.07354334,0.00958539,0.00025578,0.00437707,-0.08709567,0.03200959,0.
 06418912,-0.13677266,-0.08868114,0.02247535,-0.02917108,-0.02004617,0.
 01161887,0.00836990,-0.01617711,0.00007200,0.00115190,0.00027925,0.003
 70555,-0.00013616,0.00070189,-0.00227580,0.87710050,-0.10318940,-0.182
 64878,0.03298080,-0.00984751,0.00072935,0.00191347,-0.01734317,-0.0533
 8022,0.00134753,0.00001627,-0.00230979,-0.00185091,0.00053559,-0.00089
 503,0.00004893,0.05827400,0.45937637,0.02685089,0.02952898,-0.07419057
 ,0.01385661,0.00804264,0.00268704,-0.00277284,-0.00114630,0.00678989,0
 .00360163,-0.00156669,0.00776660,-0.00178269,0.00030613,-0.00359066,0.
 12543572,-0.09995734,0.20878253,0.00587347,-0.01166692,0.00460042,0.00
 014557,-0.00081368,0.00027965,-0.00131868,-0.00165330,-0.00005134,-0.0
 0007381,-0.00012643,-0.00056541,0.00000511,0.00013219,0.00023300,-0.07
 038227,0.06492466,-0.02956695,0.09831936,-0.00146877,-0.03431401,0.015
 34890,-0.00043820,-0.00015379,0.00023944,-0.00129935,-0.00054499,0.000
 56076,-0.00034099,-0.00019471,-0.00082280,0.00009293,-0.00003833,0.000
 38205,0.06804249,-0.15071666,0.05651654,-0.07620626,0.18632141,-0.0008
 4082,0.01174646,0.00268589,0.00016782,0.00032759,0.00019664,0.00031174
 ,0.00106101,-0.00005955,-0.00001668,0.00019206,-0.00009314,-0.00001988
 ,-0.00010156,0.00022347,-0.02900725,0.05575329,-0.07101908,0.04433720,
 -0.07942872,0.06298058,-0.04245877,-0.02833116,-0.00047177,0.00008089,
 -0.00131857,0.00095949,-0.00212624,0.00141185,-0.00053150,0.00056217,0
 .00028265,0.00048529,-0.00067585,0.00002239,-0.00004715,-0.58541181,0.
 00852899,-0.11918630,-0.02933547,0.01186949,-0.01308164,0.83693715,-0.
 02949688,-0.00255176,-0.00296485,-0.00096466,-0.00194463,0.00054997,-0
 .00229823,-0.00233826,-0.00033268,0.00045014,0.00010137,0.00096066,-0.
 00003070,-0.00002882,-0.00047576,-0.00171687,-0.06840293,0.00300065,0.
 02560575,-0.00182250,0.00895594,0.02576468,0.38485947,0.00129212,0.000
 38200,0.00679008,0.00055740,0.00008049,-0.00005949,-0.00019999,-0.0005
 9406,0.00030654,-0.00015830,0.00009660,-0.00035486,0.00025819,0.000036
 36,-0.00013650,-0.11662586,0.00423279,-0.08401310,-0.01746470,0.005752
 96,0.00047277,0.14611738,-0.09276942,0.19699404,-0.00218911,-0.0005199
 9,-0.00236194,-0.00008241,-0.00012843,0.00019066,-0.00003949,0.0001387
 3,0.00013076,0.00002368,-0.00010838,0.00021352,0.00003907,-0.00004014,
 -0.00017476,-0.03544024,-0.02707467,0.00124956,-0.00073802,0.00030424,
 0.00051456,-0.10039303,-0.08639050,0.02049119,0.13259616,-0.00078308,0
 .00103189,0.00313882,-0.00034313,-0.00018615,0.00002840,0.00030634,0.0
 0070303,-0.00013152,-0.00028718,-0.00007092,-0.00016672,0.00026233,-0.
 00008687,0.00002057,-0.01197150,-0.00190615,0.00011721,0.00038800,0.00
 053068,-0.00156226,-0.08937296,-0.15513278,0.02412292,0.11000920,0.175
 55410,-0.00266256,0.00317381,0.00776594,-0.00066877,-0.00074136,-0.000
 09313,0.00082147,0.00069535,-0.00035483,-0.00021173,0.00016891,-0.0004
 2047,0.00000860,-0.00009582,0.00026408,-0.00341438,-0.00357393,0.00606
 356,0.00038488,-0.00158025,-0.00293652,0.02137026,0.02485501,-0.046445
 57,-0.01827289,-0.03495013,0.03178115,-0.00113389,0.00046339,0.0007123
 1,-0.00008686,0.00011027,-0.00009406,-0.00006192,0.00016915,-0.0000247
 4,-0.00013021,-0.00008068,-0.00009502,0.00006743,-0.00040180,-0.000219
 04,-0.02930822,0.02517542,-0.01768628,-0.00249520,-0.00055575,-0.00236
 498,-0.07717946,0.06907743,-0.03426719,0.00622345,-0.00820791,0.002645
 01,0.10410516,0.00029717,0.00010250,-0.00166285,0.00007096,0.00005370,
 -0.00004294,0.00011606,-0.00064274,0.00025960,0.00022183,0.00008253,-0
 .00001389,-0.00061996,-0.00017683,-0.00018766,0.01129508,0.00015358,0.
 00515828,-0.00058415,0.00093294,0.00305606,0.07114277,-0.15273917,0.05
 865972,0.00381000,-0.02043682,0.01204830,-0.08574970,0.17267049,0.0005
 7700,-0.00220219,-0.00359038,0.00031740,0.00031553,0.00022347,-0.00045
 175,-0.00015647,-0.00013654,0.00006061,-0.00016523,0.00026409,-0.00013
 157,-0.00025658,-0.00005905,-0.01198412,0.00910564,0.00072358,-0.00218
 658,0.00303118,0.00754899,-0.03561451,0.05822007,-0.07355398,-0.001980
 47,0.00938283,0.00437600,0.05139402,-0.07727470,0.06420386||-0.0000000
 5,0.00000006,0.00000003,-0.00000009,0.00000003,0.00000004,0.00000001,-
 0.00000011,-0.00000002,-0.00000004,-0.00000005,0.00000001,0.00000008,-
 0.00000003,-0.00000004,-0.00000010,0.00000004,-0.00000004,-0.00000004,
 0.00000006,-0.00000003,0.00000014,0.,0.00000003,0.00000003,0.00000004,
 0.,0.00000004,-0.00000005,0.00000003|||@
 The archive entry for this job was punched.


 "TIGER, TIGER BURNING BRIGHT
 IN THE FOREST OF THE NIGHT.
 WHAT IMMORTAL HAND OR EYE
 CAN FRAME THY FEARFUL SYMMETRYE?"
                     - WILLIAM BLAKE
 Job cpu time:       0 days  0 hours  0 minutes  5.0 seconds.
 Elapsed time:       0 days  0 hours  0 minutes  3.3 seconds.
 File lengths (MBytes):  RWF=      6 Int=      0 D2E=      0 Chk=      2 Scr=      1
 Normal termination of Gaussian 16 at Mon Nov 10 21:22:21 2025.
