 Default is to use a total of   8 processors:
                                8 via shared-memory
                                1 via Linda
 Entering Link 1 = C:\G16W\l1.exe PID=     25480.
  
 Copyright (c) 1988-2019, Gaussian, Inc.  All Rights Reserved.
  
 This is part of the Gaussian(R) 16 program.  It is based on
 the Gaussian(R) 09 system (copyright 2009, Gaussian, Inc.),
 the Gaussian(R) 03 system (copyright 2003, Gaussian, Inc.),
 the Gaussian(R) 98 system (copyright 1998, Gaussian, Inc.),
 the Gaussian(R) 94 system (copyright 1995, Gaussian, Inc.),
 the Gaussian 92(TM) system (copyright 1992, Gaussian, Inc.),
 the Gaussian 90(TM) system (copyright 1990, Gaussian, Inc.),
 the Gaussian 88(TM) system (copyright 1988, Gaussian, Inc.),
 the Gaussian 86(TM) system (copyright 1986, Carnegie Mellon
 University), and the Gaussian 82(TM) system (copyright 1983,
 Carnegie Mellon University). Gaussian is a federally registered
 trademark of Gaussian, Inc.
  
 This software contains proprietary and confidential information,
 including trade secrets, belonging to Gaussian, Inc.
  
 This software is provided under written license and may be
 used, copied, transmitted, or stored only in accord with that
 written license.
  
 The following legend is applicable only to US Government
 contracts under FAR:
  
                    RESTRICTED RIGHTS LEGEND
  
 Use, reproduction and disclosure by the US Government is
 subject to restrictions as set forth in subparagraphs (a)
 and (c) of the Commercial Computer Software - Restricted
 Rights clause in FAR 52.227-19.
  
 Gaussian, Inc.
 340 Quinnipiac St., Bldg. 40, Wallingford CT 06492
  
  
 ---------------------------------------------------------------
 Warning -- This program may not be used in any manner that
 competes with the business of Gaussian, Inc. or will provide
 assistance to any competitor of Gaussian, Inc.  The licensee
 of this program is prohibited from giving any competitor of
 Gaussian, Inc. access to this program.  By using this program,
 the user acknowledges that Gaussian, Inc. is engaged in the
 business of creating and licensing software in the field of
 computational chemistry and represents and warrants to the
 licensee that it is not a competitor of Gaussian, Inc. and that
 it will not use this program in any manner prohibited above.
 ---------------------------------------------------------------
  

 Cite this work as:
 Gaussian 16, Revision C.01,
 M. J. Frisch, G. W. Trucks, H. B. Schlegel, G. E. Scuseria, 
 M. A. Robb, J. R. Cheeseman, G. Scalmani, V. Barone, 
 G. A. Petersson, H. Nakatsuji, X. Li, M. Caricato, A. V. Marenich, 
 J. Bloino, B. G. Janesko, R. Gomperts, B. Mennucci, H. P. Hratchian, 
 J. V. Ortiz, A. F. Izmaylov, J. L. Sonnenberg, D. Williams-Young, 
 F. Ding, F. Lipparini, F. Egidi, J. Goings, B. Peng, A. Petrone, 
 T. Henderson, D. Ranasinghe, V. G. Zakrzewski, J. Gao, N. Rega, 
 G. Zheng, W. Liang, M. Hada, M. Ehara, K. Toyota, R. Fukuda, 
 J. Hasegawa, M. Ishida, T. Nakajima, Y. Honda, O. Kitao, H. Nakai, 
 T. Vreven, K. Throssell, J. A. Montgomery, Jr., J. E. Peralta, 
 F. Ogliaro, M. J. Bearpark, J. J. Heyd, E. N. Brothers, K. N. Kudin, 
 V. N. Staroverov, T. A. Keith, R. Kobayashi, J. Normand, 
 K. Raghavachari, A. P. Rendell, J. C. Burant, S. S. Iyengar, 
 J. Tomasi, M. Cossi, J. M. Millam, M. Klene, C. Adamo, R. Cammi, 
 J. W. Ochterski, R. L. Martin, K. Morokuma, O. Farkas, 
 J. B. Foresman, and D. J. Fox, Gaussian, Inc., Wallingford CT, 2019.
 
 ******************************************
 Gaussian 16:  EM64W-G16RevC.01 30-May-2019
                11-Nov-2025 
 ******************************************
 %chk=C:\Users\al6323\OneDrive - Imperial College London\Desktop\TSR20251111\Exer
 cise 1\cyclohexene_opt+freq.chk
 Default route: MaxDisk=10GB
 ----------------------------------------------------------------------
 # opt=(calcfc,tight,cartesian,recalcfc=10) freq pm6 nosymm geom=connec
 tivity scf=tight
 ----------------------------------------------------------------------
 1/7=10,10=4,18=10,26=1,38=1,57=2,71=10/1,3;
 2/12=2,15=1,17=6,18=5,29=2,40=1/2;
 3/5=2,25=1,41=3900000,71=2,140=1/1,2,3;
 4/35=1/1;
 5/5=2,32=2,35=1,38=5/2;
 8/6=4,10=90,11=11/1;
 11/6=1,8=1,9=11,15=111,16=1,31=1/1,2,10;
 10/6=1,13=1,31=1/2;
 6/7=2,8=2,9=2,10=2,28=1/1;
 7/7=1,10=1,25=1,30=1/1,2,3,16;
 1/7=10,10=4,18=10,26=1,71=10/3(2);
 2/15=1,29=1/2;
 99/12=1/99;
 2/15=1,29=1/2;
 3/5=2,25=1,41=3900000,71=2,135=20,140=1/1,2,3;
 4/5=5,16=3,35=1/1;
 5/5=2,32=2,35=1,38=5/2;
 8/6=4,10=90,11=11/1;
 11/6=1,8=1,9=11,15=111,16=1,31=1/1,2,10;
 10/6=1,13=1,31=1/2;
 7/7=1,10=1,25=1,30=1/1,2,3,16;
 1/7=10,18=10,26=1,71=10/3(-8);
 2/15=1,29=1/2;
 6/7=2,8=2,9=2,10=2,19=2,28=1/1;
 99/9=1,12=1/99;
 --------------------
 cyclohexene_opt+freq
 --------------------
 Symbolic Z-matrix:
 Charge =  0 Multiplicity = 1
 C                    -0.43466   0.13358  -0.05663 
 C                     1.06161   0.05156  -0.14005 
 C                     1.74796   1.35458   0.30035 
 C                     1.03927   2.57608  -0.30028 
 C                    -0.4331    2.62586   0.13847 
 C                    -1.10369   1.28585   0.05356 
 H                    -0.95015  -0.82374  -0.10818 
 H                     1.43055  -0.79172   0.47652 
 H                     1.73614   1.42421   1.40515 
 H                     1.55645   3.50484   0.00031 
 H                    -0.50214   2.99094   1.18495 
 H                    -2.19069   1.31284   0.10401 
 H                    -0.98177   3.36469  -0.47836 
 H                     1.09516   2.53202  -1.40504 
 H                     2.8113    1.34337   0.001 
 H                     1.3455   -0.18865  -1.18641 
 

 GradGradGradGradGradGradGradGradGradGradGradGradGradGradGradGradGradGrad
 Berny optimization.
 Initialization pass.
 No Z-matrix variables, so optimization will use Cartesian coordinates.
 Trust Radius=3.00D-01 FncErr=1.00D-07 GrdErr=1.00D-07 EigMax=2.50D+02 EigMin=1.00D-04
 Number of steps in this run=     58 maximum allowed number of steps=    100.
 GradGradGradGradGradGradGradGradGradGradGradGradGradGradGradGradGradGrad

 ---------------------------------------------------------------------------------------------------
                            Z-MATRIX (ANGSTROMS AND DEGREES)
   CD    Cent   Atom    N1       Length/X        N2       Alpha/Y        N3        Beta/Z          J
 ---------------------------------------------------------------------------------------------------
      1      1  C        0  -0.434660          0.133582         -0.056632
      2      2  C        0   1.061611          0.051564         -0.140051
      3      3  C        0   1.747961          1.354576          0.300351
      4      4  C        0   1.039274          2.576075         -0.300279
      5      5  C        0  -0.433096          2.625860          0.138466
      6      6  C        0  -1.103687          1.285853          0.053564
      7      7  H        0  -0.950150         -0.823736         -0.108176
      8      8  H        0   1.430547         -0.791721          0.476523
      9      9  H        0   1.736139          1.424206          1.405146
     10     10  H        0   1.556451          3.504845          0.000306
     11     11  H        0  -0.502144          2.990942          1.184946
     12     12  H        0  -2.190690          1.312839          0.104015
     13     13  H        0  -0.981773          3.364685         -0.478363
     14     14  H        0   1.095157          2.532019         -1.405035
     15     15  H        0   2.811302          1.343373          0.000998
     16     16  H        0   1.345498         -0.188650         -1.186407
 ---------------------------------------------------------------------------------------------------
                         Z-Matrix orientation:                         
 ---------------------------------------------------------------------
 Center     Atomic      Atomic             Coordinates (Angstroms)
 Number     Number       Type             X           Y           Z
 ---------------------------------------------------------------------
      1          6           0       -0.434660    0.133582   -0.056632
      2          6           0        1.061611    0.051564   -0.140051
      3          6           0        1.747961    1.354576    0.300351
      4          6           0        1.039274    2.576075   -0.300279
      5          6           0       -0.433096    2.625860    0.138466
      6          6           0       -1.103687    1.285853    0.053564
      7          1           0       -0.950150   -0.823736   -0.108176
      8          1           0        1.430547   -0.791721    0.476523
      9          1           0        1.736139    1.424206    1.405146
     10          1           0        1.556451    3.504845    0.000306
     11          1           0       -0.502144    2.990942    1.184946
     12          1           0       -2.190690    1.312839    0.104015
     13          1           0       -0.981773    3.364685   -0.478363
     14          1           0        1.095157    2.532019   -1.405035
     15          1           0        2.811302    1.343373    0.000998
     16          1           0        1.345498   -0.188650   -1.186407
 ---------------------------------------------------------------------
                    Distance matrix (angstroms):
                    1          2          3          4          5
     1  C    0.000000
     2  C    1.500838   0.000000
     3  C    2.526281   1.537163   0.000000
     4  C    2.863148   2.529690   1.534619   0.000000
     5  C    2.499903   2.989771   2.529700   1.537156   0.000000
     6  C    1.336962   2.499895   2.863132   2.526294   1.500840
     7  H    1.088506   2.194163   3.491667   3.943784   3.496840
     8  H    2.149287   1.107883   2.176781   3.478299   3.907340
     9  H    2.918026   2.174114   1.107050   2.172763   2.784606
    10  H    3.915760   3.491378   2.179532   1.104734   2.179449
    11  H    3.116180   3.583420   2.919448   2.180362   1.110483
    12  H    2.121343   3.496834   3.943762   3.491688   2.194162
    13  H    3.304122   3.907256   3.478273   2.176753   1.107875
    14  H    3.148179   2.784595   2.172756   1.107046   2.174112
    15  H    3.464562   2.179469   1.104732   2.179543   3.491389
    16  H    2.132882   1.110475   2.180361   2.919367   3.583316
                    6          7          8          9         10
     6  C    0.000000
     7  H    2.121343   0.000000
     8  H    3.304171   2.451656   0.000000
     9  H    3.148099   3.815697   2.421995   0.000000
    10  H    3.464549   5.003142   4.324709   2.516927   0.000000
    11  H    2.132887   4.052732   4.306471   2.740997   2.430078
    12  H    1.088507   2.479700   4.204912   4.138277   4.342431
    13  H    2.149269   4.204868   4.899674   3.834073   2.586764
    14  H    2.918109   4.138383   3.834057   3.087916   1.770358
    15  H    3.915765   4.342442   2.586742   1.770351   2.499323
    16  H    3.116119   2.614558   1.770950   3.077345   3.885189
                   11         12         13         14         15
    11  H    0.000000
    12  H    2.614504   0.000000
    13  H    1.770967   2.451677   0.000000
    14  H    3.077334   3.815812   2.421920   0.000000
    15  H    3.885247   5.003146   4.324687   2.516935   0.000000
    16  H    4.375717   4.052688   4.306241   2.740896   2.430146
                   16
    16  H    0.000000
 Symmetry turned off by external request.
 Stoichiometry    C6H10
 Framework group  C1[X(C6H10)]
 Deg. of freedom    42
 Full point group                 C1      NOp   1
 Rotational constants (GHZ):           4.7111973           4.5413292           2.5447463
 Standard basis: VSTO-6G (5D, 7F)
    34 basis functions,   204 primitive gaussians,    34 cartesian basis functions
    17 alpha electrons       17 beta electrons
       nuclear repulsion energy       146.4415598195 Hartrees.
 Integral buffers will be    131072 words long.
 Regular integral format.
 Two-electron integral symmetry is turned off.
 Do NDO integrals.
 One-electron integrals computed using PRISM.
 NBasis=    34 RedAO= F EigKep=  0.00D+00  NBF=    34
 NBsUse=    34 1.00D-04 EigRej=  0.00D+00 NBFU=    34
 Simple Huckel Guess.
 Keep J ints in memory in canonical form, NReq=862326.
 Overlap will be assumed to be unity.
 Requested convergence on RMS density matrix=1.00D-08 within 128 cycles.
 Requested convergence on MAX density matrix=1.00D-06.
 Requested convergence on             energy=1.00D-06.
 No special actions if energy rises.
 SCF Done:  E(RPM6) = -0.618525803009E-02 A.U. after   12 cycles
            NFock= 11  Conv=0.17D-08     -V/T= 0.9999
 Range of M.O.s used for correlation:     1    34
 NBasis=    34 NAE=    17 NBE=    17 NFC=     0 NFV=     0
 NROrb=     34 NOA=    17 NOB=    17 NVA=    17 NVB=    17
 Symmetrizing basis deriv contribution to polar:
 IMax=3 JMax=2 DiffMx= 0.00D+00
 G2DrvN: will do    17 centers at a time, making    1 passes.
 Calling FoFCou, ICntrl=  3107 FMM=F I1Cent=   0 AccDes= 0.00D+00.
 End of G2Drv F.D. properties file   721 does not exist.
 End of G2Drv F.D. properties file   722 does not exist.
 End of G2Drv F.D. properties file   788 does not exist.
          IDoAtm=1111111111111111
          Differentiating once with respect to nuclear coordinates.
          Electric field/nuclear overlap derivatives assumed to be zero.
 Keep J ints in memory in canonical form, NReq=863993.
          There are    51 degrees of freedom in the 1st order CPHF.  IDoFFX=5 NUNeed=    51.
 LinEq1:  Iter=  0 NonCon=    48 RMS=1.48D-02 Max=1.20D-01 NDo=    48
 AX will form    51 AO Fock derivatives at one time.
 LinEq1:  Iter=  1 NonCon=    48 RMS=1.52D-03 Max=1.26D-02 NDo=    51
 LinEq1:  Iter=  2 NonCon=    48 RMS=1.67D-04 Max=1.30D-03 NDo=    51
 LinEq1:  Iter=  3 NonCon=    48 RMS=2.68D-05 Max=1.92D-04 NDo=    51
 LinEq1:  Iter=  4 NonCon=    48 RMS=4.18D-06 Max=2.76D-05 NDo=    51
 LinEq1:  Iter=  5 NonCon=    48 RMS=6.26D-07 Max=3.41D-06 NDo=    51
 LinEq1:  Iter=  6 NonCon=    48 RMS=1.00D-07 Max=5.50D-07 NDo=    51
 LinEq1:  Iter=  7 NonCon=     8 RMS=1.62D-08 Max=9.35D-08 NDo=    51
 LinEq1:  Iter=  8 NonCon=     0 RMS=1.90D-09 Max=9.45D-09 NDo=     8
 Linear equations converged to 1.000D-08 1.000D-07 after     8 iterations.
 End of Minotr F.D. properties file   721 does not exist.
 End of Minotr F.D. properties file   722 does not exist.
 End of Minotr F.D. properties file   788 does not exist.

 **********************************************************************

            Population analysis using the SCF Density.

 **********************************************************************

 Alpha  occ. eigenvalues --   -1.07419  -0.94993  -0.94372  -0.78955  -0.76556
 Alpha  occ. eigenvalues --   -0.64367  -0.61394  -0.55265  -0.52877  -0.50813
 Alpha  occ. eigenvalues --   -0.48657  -0.47826  -0.47267  -0.41843  -0.41194
 Alpha  occ. eigenvalues --   -0.40130  -0.34560
 Alpha virt. eigenvalues --    0.05574   0.15171   0.15377   0.16945   0.17365
 Alpha virt. eigenvalues --    0.18256   0.20904   0.21340   0.21869   0.22411
 Alpha virt. eigenvalues --    0.22837   0.23395   0.23762   0.23942   0.24170
 Alpha virt. eigenvalues --    0.24414   0.24682
          Condensed to atoms (all electrons):
               1          2          3          4          5          6
     1  C    4.156642   0.000000   0.000000   0.000000   0.000000   0.000000
     2  C    0.000000   4.256195   0.000000   0.000000   0.000000   0.000000
     3  C    0.000000   0.000000   4.245263   0.000000   0.000000   0.000000
     4  C    0.000000   0.000000   0.000000   4.245264   0.000000   0.000000
     5  C    0.000000   0.000000   0.000000   0.000000   4.256194   0.000000
     6  C    0.000000   0.000000   0.000000   0.000000   0.000000   4.156643
     7  H    0.000000   0.000000   0.000000   0.000000   0.000000   0.000000
     8  H    0.000000   0.000000   0.000000   0.000000   0.000000   0.000000
     9  H    0.000000   0.000000   0.000000   0.000000   0.000000   0.000000
    10  H    0.000000   0.000000   0.000000   0.000000   0.000000   0.000000
    11  H    0.000000   0.000000   0.000000   0.000000   0.000000   0.000000
    12  H    0.000000   0.000000   0.000000   0.000000   0.000000   0.000000
    13  H    0.000000   0.000000   0.000000   0.000000   0.000000   0.000000
    14  H    0.000000   0.000000   0.000000   0.000000   0.000000   0.000000
    15  H    0.000000   0.000000   0.000000   0.000000   0.000000   0.000000
    16  H    0.000000   0.000000   0.000000   0.000000   0.000000   0.000000
               7          8          9         10         11         12
     1  C    0.000000   0.000000   0.000000   0.000000   0.000000   0.000000
     2  C    0.000000   0.000000   0.000000   0.000000   0.000000   0.000000
     3  C    0.000000   0.000000   0.000000   0.000000   0.000000   0.000000
     4  C    0.000000   0.000000   0.000000   0.000000   0.000000   0.000000
     5  C    0.000000   0.000000   0.000000   0.000000   0.000000   0.000000
     6  C    0.000000   0.000000   0.000000   0.000000   0.000000   0.000000
     7  H    0.867974   0.000000   0.000000   0.000000   0.000000   0.000000
     8  H    0.000000   0.867465   0.000000   0.000000   0.000000   0.000000
     9  H    0.000000   0.000000   0.867556   0.000000   0.000000   0.000000
    10  H    0.000000   0.000000   0.000000   0.877964   0.000000   0.000000
    11  H    0.000000   0.000000   0.000000   0.000000   0.860940   0.000000
    12  H    0.000000   0.000000   0.000000   0.000000   0.000000   0.867974
    13  H    0.000000   0.000000   0.000000   0.000000   0.000000   0.000000
    14  H    0.000000   0.000000   0.000000   0.000000   0.000000   0.000000
    15  H    0.000000   0.000000   0.000000   0.000000   0.000000   0.000000
    16  H    0.000000   0.000000   0.000000   0.000000   0.000000   0.000000
              13         14         15         16
     1  C    0.000000   0.000000   0.000000   0.000000
     2  C    0.000000   0.000000   0.000000   0.000000
     3  C    0.000000   0.000000   0.000000   0.000000
     4  C    0.000000   0.000000   0.000000   0.000000
     5  C    0.000000   0.000000   0.000000   0.000000
     6  C    0.000000   0.000000   0.000000   0.000000
     7  H    0.000000   0.000000   0.000000   0.000000
     8  H    0.000000   0.000000   0.000000   0.000000
     9  H    0.000000   0.000000   0.000000   0.000000
    10  H    0.000000   0.000000   0.000000   0.000000
    11  H    0.000000   0.000000   0.000000   0.000000
    12  H    0.000000   0.000000   0.000000   0.000000
    13  H    0.867464   0.000000   0.000000   0.000000
    14  H    0.000000   0.867557   0.000000   0.000000
    15  H    0.000000   0.000000   0.877964   0.000000
    16  H    0.000000   0.000000   0.000000   0.860940
 Mulliken charges:
               1
     1  C   -0.156642
     2  C   -0.256195
     3  C   -0.245263
     4  C   -0.245264
     5  C   -0.256194
     6  C   -0.156643
     7  H    0.132026
     8  H    0.132535
     9  H    0.132444
    10  H    0.122036
    11  H    0.139060
    12  H    0.132026
    13  H    0.132536
    14  H    0.132443
    15  H    0.122036
    16  H    0.139060
 Sum of Mulliken charges =   0.00000
 Mulliken charges with hydrogens summed into heavy atoms:
               1
     1  C   -0.024616
     2  C    0.015400
     3  C    0.009217
     4  C    0.009215
     5  C    0.015402
     6  C   -0.024617
 APT charges:
               1
     1  C   -0.156642
     2  C   -0.256195
     3  C   -0.245263
     4  C   -0.245264
     5  C   -0.256194
     6  C   -0.156643
     7  H    0.132026
     8  H    0.132535
     9  H    0.132444
    10  H    0.122036
    11  H    0.139060
    12  H    0.132026
    13  H    0.132536
    14  H    0.132443
    15  H    0.122036
    16  H    0.139060
 Sum of APT charges =   0.00000
 APT charges with hydrogens summed into heavy atoms:
               1
     1  C   -0.024616
     2  C    0.015400
     3  C    0.009217
     4  C    0.009215
     5  C    0.015402
     6  C   -0.024617
 Charge=              0.0000 electrons
 Dipole moment (field-independent basis, Debye):
    X=              0.3215    Y=              0.1867    Z=              0.0002  Tot=              0.3718
 N-N= 1.464415598195D+02 E-N=-2.216746872019D+02  KE=-5.045108346693D+01
  Exact polarizability:       0.000       0.000       0.000       0.000       0.000       0.000
 Approx polarizability:      30.383      -6.860      38.214      -1.076       1.861      20.256
 Calling FoFJK, ICntrl=    100127 FMM=F ISym2X=0 I1Cent= 0 IOpClX= 0 NMat=1 NMatS=1 NMatT=0.
 -------------------------------------------------------------------
 Center     Atomic                   Forces (Hartrees/Bohr)
 Number     Number              X              Y              Z
 -------------------------------------------------------------------
      1        6          -0.000000075    0.000001395    0.000000525
      2        6           0.000003475   -0.000000449    0.000006007
      3        6          -0.000004012   -0.000003187   -0.000001324
      4        6           0.000001491   -0.000001890    0.000004736
      5        6          -0.000001114   -0.000001234   -0.000001642
      6        6           0.000000854   -0.000000572    0.000000168
      7        1          -0.000000244   -0.000000396   -0.000000279
      8        1          -0.000001702    0.000004114   -0.000000380
      9        1          -0.000001253    0.000000336   -0.000001407
     10        1           0.000001189    0.000002306   -0.000000520
     11        1           0.000000053    0.000000047    0.000000589
     12        1           0.000000113    0.000000146    0.000000074
     13        1          -0.000000952    0.000001024   -0.000000132
     14        1          -0.000000337   -0.000000793   -0.000000434
     15        1           0.000001532   -0.000000560   -0.000001261
     16        1           0.000000981   -0.000000287   -0.000004719
 -------------------------------------------------------------------
 Cartesian Forces:  Max     0.000006007 RMS     0.000001910

 GradGradGradGradGradGradGradGradGradGradGradGradGradGradGradGradGradGrad
 Berny optimization.
 Search for a local minimum.
 Step number   1 out of a maximum of   58
 All quantities printed in internal units (Hartrees-Bohrs-Radians)
 Second derivative matrix not updated -- analytic derivatives used.
 ITU=  0
     Eigenvalues ---    0.00094   0.00373   0.00830   0.01728   0.02698
     Eigenvalues ---    0.03141   0.04220   0.04287   0.04821   0.05168
     Eigenvalues ---    0.05198   0.05328   0.05578   0.05662   0.05788
     Eigenvalues ---    0.06723   0.07451   0.08002   0.08561   0.11345
     Eigenvalues ---    0.11823   0.14119   0.15017   0.16466   0.20931
     Eigenvalues ---    0.22115   0.23321   0.35057   0.35579   0.47232
     Eigenvalues ---    0.48331   0.53053   0.53849   0.58086   0.62805
     Eigenvalues ---    0.64043   0.66458   0.66724   0.69348   0.72546
     Eigenvalues ---    0.77012   1.50282
 RFO step:  Lambda= 0.00000000D+00 EMin= 9.39379559D-04
 Linear search not attempted -- first point.
 B after Tr=     0.000000    0.000001   -0.000004
         Rot=    1.000000    0.000000    0.000000    0.000000 Ang=   0.00 deg.
 Variable       Old X    -DE/DX   Delta X   Delta X   Delta X     New X
                                 (Linear)    (Quad)   (Total)
    X1       -0.82139   0.00000   0.00000   0.00000   0.00000  -0.82139
    Y1        0.25243   0.00000   0.00000   0.00001   0.00001   0.25245
    Z1       -0.10702   0.00000   0.00000  -0.00005  -0.00005  -0.10707
    X2        2.00615   0.00000   0.00000   0.00001   0.00001   2.00616
    Y2        0.09744   0.00000   0.00000  -0.00001  -0.00001   0.09743
    Z2       -0.26466   0.00001   0.00000   0.00005   0.00005  -0.26461
    X3        3.30317   0.00000   0.00000   0.00001   0.00001   3.30317
    Y3        2.55978   0.00000   0.00000   0.00001   0.00001   2.55979
    Z3        0.56758   0.00000   0.00000  -0.00003  -0.00003   0.56755
    X4        1.96394   0.00000   0.00000  -0.00002  -0.00002   1.96393
    Y4        4.86808   0.00000   0.00000   0.00000   0.00000   4.86808
    Z4       -0.56744   0.00000   0.00000  -0.00001   0.00000  -0.56745
    X5       -0.81843   0.00000   0.00000   0.00000   0.00000  -0.81843
    Y5        4.96216   0.00000   0.00000   0.00000   0.00000   4.96216
    Z5        0.26166   0.00000   0.00000   0.00005   0.00005   0.26172
    X6       -2.08567   0.00000   0.00000   0.00000   0.00000  -2.08567
    Y6        2.42991   0.00000   0.00000   0.00001   0.00001   2.42992
    Z6        0.10122   0.00000   0.00000  -0.00004  -0.00004   0.10118
    X7       -1.79552   0.00000   0.00000   0.00000   0.00000  -1.79553
    Y7       -1.55664   0.00000   0.00000   0.00002   0.00002  -1.55662
    Z7       -0.20442   0.00000   0.00000  -0.00014  -0.00014  -0.20457
    X8        2.70334   0.00000   0.00000  -0.00006  -0.00006   2.70328
    Y8       -1.49614   0.00000   0.00000   0.00007   0.00007  -1.49606
    Z8        0.90050   0.00000   0.00000   0.00019   0.00018   0.90068
    X9        3.28083   0.00000   0.00000   0.00005   0.00005   3.28088
    Y9        2.69136   0.00000   0.00000   0.00005   0.00004   2.69140
    Z9        2.65534   0.00000   0.00000  -0.00004  -0.00004   2.65531
   X10        2.94127   0.00000   0.00000   0.00001   0.00000   2.94127
   Y10        6.62320   0.00000   0.00000   0.00002   0.00002   6.62322
   Z10        0.00058   0.00000   0.00000  -0.00008  -0.00008   0.00050
   X11       -0.94892   0.00000   0.00000   0.00005   0.00005  -0.94887
   Y11        5.65206   0.00000   0.00000  -0.00010  -0.00010   5.65196
   Z11        2.23922   0.00000   0.00000   0.00009   0.00009   2.23932
   X12       -4.13980   0.00000   0.00000   0.00000   0.00000  -4.13981
   Y12        2.48091   0.00000   0.00000   0.00001   0.00001   2.48092
   Z12        0.19656   0.00000   0.00000  -0.00011  -0.00011   0.19645
   X13       -1.85528   0.00000   0.00000  -0.00002  -0.00002  -1.85530
   Y13        6.35833   0.00000   0.00000   0.00007   0.00007   6.35840
   Z13       -0.90397   0.00000   0.00000   0.00015   0.00015  -0.90382
   X14        2.06955   0.00000   0.00000  -0.00009  -0.00008   2.06946
   Y14        4.78482   0.00000   0.00000  -0.00004  -0.00004   4.78478
   Z14       -2.65513   0.00000   0.00000  -0.00001  -0.00001  -2.65514
   X15        5.31259   0.00000   0.00000   0.00000   0.00000   5.31259
   Y15        2.53861   0.00000   0.00000   0.00000   0.00000   2.53861
   Z15        0.00189   0.00000   0.00000  -0.00010  -0.00009   0.00179
   X16        2.54262   0.00000   0.00000   0.00007   0.00007   2.54270
   Y16       -0.35650   0.00000   0.00000  -0.00012  -0.00012  -0.35661
   Z16       -2.24198   0.00000   0.00000   0.00008   0.00007  -2.24191
         Item               Value     Threshold  Converged?
 Maximum Force            0.000006     0.000015     YES
 RMS     Force            0.000002     0.000010     YES
 Maximum Displacement     0.000184     0.000060     NO 
 RMS     Displacement     0.000063     0.000040     NO 
 Predicted change in Energy=-3.558330D-10
 GradGradGradGradGradGradGradGradGradGradGradGradGradGradGradGradGradGrad

                          Input orientation:                          
 ---------------------------------------------------------------------
 Center     Atomic      Atomic             Coordinates (Angstroms)
 Number     Number       Type             X           Y           Z
 ---------------------------------------------------------------------
      1          6           0       -0.434659    0.133589   -0.056661
      2          6           0        1.061617    0.051559   -0.140024
      3          6           0        1.747964    1.354580    0.300335
      4          6           0        1.039266    2.576076   -0.300281
      5          6           0       -0.433096    2.625860    0.138494
      6          6           0       -1.103688    1.285857    0.053541
      7          1           0       -0.950152   -0.823727   -0.108252
      8          1           0        1.430513   -0.791681    0.476621
      9          1           0        1.736164    1.424230    1.405127
     10          1           0        1.556453    3.504856    0.000265
     11          1           0       -0.502118    2.990889    1.184995
     12          1           0       -2.190692    1.312844    0.103956
     13          1           0       -0.981783    3.364723   -0.478283
     14          1           0        1.095113    2.531997   -1.405041
     15          1           0        2.811301    1.343372    0.000949
     16          1           0        1.345537   -0.188712   -1.186368
 ---------------------------------------------------------------------
                    Distance matrix (angstroms):
                    1          2          3          4          5
     1  C    0.000000
     2  C    1.500839   0.000000
     3  C    2.526283   1.537157   0.000000
     4  C    2.863136   2.529697   1.534615   0.000000
     5  C    2.499901   2.989776   2.529697   1.537157   0.000000
     6  C    1.336962   2.499901   2.863136   2.526283   1.500839
     7  H    1.088507   2.194162   3.491675   3.943769   3.496838
     8  H    2.149275   1.107876   2.176761   3.478281   3.907295
     9  H    2.918057   2.174105   1.107049   2.172748   2.784594
    10  H    3.915765   3.491390   2.179543   1.104737   2.179461
    11  H    3.116156   3.583379   2.919418   2.180362   1.110484
    12  H    2.121343   3.496838   3.943769   3.491674   2.194162
    13  H    3.304140   3.907295   3.478281   2.176761   1.107876
    14  H    3.148126   2.784594   2.172748   1.107049   2.174105
    15  H    3.464556   2.179461   1.104737   2.179543   3.491390
    16  H    2.132888   1.110484   2.180362   2.919418   3.583379
                    6          7          8          9         10
     6  C    0.000000
     7  H    2.121343   0.000000
     8  H    3.304139   2.451666   0.000000
     9  H    3.148126   3.815747   2.421944   0.000000
    10  H    3.464556   5.003146   4.324698   2.516931   0.000000
    11  H    2.132888   4.052717   4.306355   2.740946   2.430116
    12  H    1.088507   2.479699   4.204882   4.138316   4.342438
    13  H    2.149275   4.204882   4.899664   3.834056   2.586753
    14  H    2.918056   4.138315   3.834056   3.087903   1.770360
    15  H    3.915765   4.342438   2.586753   1.770360   2.499331
    16  H    3.116156   2.614529   1.770967   3.077339   3.885232
                   11         12         13         14         15
    11  H    0.000000
    12  H    2.614529   0.000000
    13  H    1.770967   2.451666   0.000000
    14  H    3.077339   3.815746   2.421944   0.000000
    15  H    3.885231   5.003146   4.324698   2.516931   0.000000
    16  H    4.375734   4.052717   4.306356   2.740946   2.430116
                   16
    16  H    0.000000
 Symmetry turned off by external request.
 Stoichiometry    C6H10
 Framework group  C1[X(C6H10)]
 Deg. of freedom    42
 Full point group                 C1      NOp   1
 Rotational constants (GHZ):           4.7112131           4.5413236           2.5447469
 Standard basis: VSTO-6G (5D, 7F)
    34 basis functions,   204 primitive gaussians,    34 cartesian basis functions
    17 alpha electrons       17 beta electrons
       nuclear repulsion energy       146.4415870089 Hartrees.
 Integral buffers will be    131072 words long.
 Regular integral format.
 Two-electron integral symmetry is turned off.
 Do NDO integrals.
 One-electron integrals computed using PRISM.
 NBasis=    34 RedAO= F EigKep=  0.00D+00  NBF=    34
 NBsUse=    34 1.00D-04 EigRej=  0.00D+00 NBFU=    34
 Initial guess from the checkpoint file:  "C:\Users\al6323\OneDrive - Imperial College London\Desktop\TSR20251111\Exercise 1\cyclohexene_opt+freq.chk"
 B after Tr=     0.000001    0.000002   -0.000011
         Rot=    1.000000   -0.000001    0.000001    0.000000 Ang=   0.00 deg.
 Keep J ints in memory in canonical form, NReq=862326.
 Overlap will be assumed to be unity.
 Requested convergence on RMS density matrix=1.00D-08 within 128 cycles.
 Requested convergence on MAX density matrix=1.00D-06.
 Requested convergence on             energy=1.00D-06.
 No special actions if energy rises.
 SCF Done:  E(RPM6) = -0.618525838664E-02 A.U. after    7 cycles
            NFock=  6  Conv=0.23D-08     -V/T= 0.9999
 Range of M.O.s used for correlation:     1    34
 NBasis=    34 NAE=    17 NBE=    17 NFC=     0 NFV=     0
 NROrb=     34 NOA=    17 NOB=    17 NVA=    17 NVB=    17
 Symmetrizing basis deriv contribution to polar:
 IMax=3 JMax=2 DiffMx= 0.00D+00
 Calling FoFJK, ICntrl=      2127 FMM=F ISym2X=0 I1Cent= 0 IOpClX= 0 NMat=1 NMatS=1 NMatT=0.
 -------------------------------------------------------------------
 Center     Atomic                   Forces (Hartrees/Bohr)
 Number     Number              X              Y              Z
 -------------------------------------------------------------------
      1        6           0.000000001   -0.000000001    0.000000002
      2        6           0.000000000   -0.000000001   -0.000000002
      3        6           0.000000001   -0.000000001    0.000000000
      4        6           0.000000000    0.000000001    0.000000001
      5        6          -0.000000001    0.000000001   -0.000000001
      6        6          -0.000000001    0.000000001   -0.000000002
      7        1           0.000000001    0.000000000    0.000000000
      8        1          -0.000000001    0.000000002   -0.000000001
      9        1           0.000000000    0.000000000    0.000000000
     10        1           0.000000000    0.000000000    0.000000000
     11        1           0.000000000   -0.000000001   -0.000000001
     12        1           0.000000001    0.000000000    0.000000001
     13        1           0.000000001   -0.000000001    0.000000001
     14        1           0.000000000    0.000000000    0.000000001
     15        1          -0.000000001    0.000000000    0.000000000
     16        1           0.000000000    0.000000001    0.000000001
 -------------------------------------------------------------------
 Cartesian Forces:  Max     0.000000002 RMS     0.000000001

 GradGradGradGradGradGradGradGradGradGradGradGradGradGradGradGradGradGrad
 Berny optimization.
 Search for a local minimum.
 Step number   2 out of a maximum of   58
 All quantities printed in internal units (Hartrees-Bohrs-Radians)
 Update second derivatives using D2CorN and points    1    2
 DE= -3.57D-10 DEPred=-3.56D-10 R= 1.00D+00
 Trust test= 1.00D+00 RLast= 4.39D-04 DXMaxT set to 3.00D-01
 ITU=  0  0
     Eigenvalues ---    0.00094   0.00373   0.00830   0.01728   0.02698
     Eigenvalues ---    0.03141   0.04220   0.04287   0.04821   0.05168
     Eigenvalues ---    0.05198   0.05328   0.05578   0.05662   0.05788
     Eigenvalues ---    0.06723   0.07451   0.08002   0.08561   0.11345
     Eigenvalues ---    0.11823   0.14119   0.15017   0.16466   0.20931
     Eigenvalues ---    0.22115   0.23321   0.35057   0.35579   0.47232
     Eigenvalues ---    0.48331   0.53053   0.53849   0.58086   0.62805
     Eigenvalues ---    0.64043   0.66458   0.66724   0.69348   0.72546
     Eigenvalues ---    0.77012   1.50282
 RFO step:  Lambda= 0.00000000D+00 EMin= 9.40846779D-04
 Quartic linear search produced a step of -0.00034.
 B after Tr=     0.000000    0.000000    0.000000
         Rot=    1.000000    0.000000    0.000000    0.000000 Ang=   0.00 deg.
 Variable       Old X    -DE/DX   Delta X   Delta X   Delta X     New X
                                 (Linear)    (Quad)   (Total)
    X1       -0.82139   0.00000   0.00000   0.00000   0.00000  -0.82139
    Y1        0.25245   0.00000   0.00000   0.00000   0.00000   0.25245
    Z1       -0.10707   0.00000   0.00000   0.00000   0.00000  -0.10707
    X2        2.00616   0.00000   0.00000   0.00000   0.00000   2.00616
    Y2        0.09743   0.00000   0.00000   0.00000   0.00000   0.09743
    Z2       -0.26461   0.00000   0.00000   0.00000   0.00000  -0.26461
    X3        3.30317   0.00000   0.00000   0.00000   0.00000   3.30317
    Y3        2.55979   0.00000   0.00000   0.00000   0.00000   2.55979
    Z3        0.56755   0.00000   0.00000   0.00000   0.00000   0.56755
    X4        1.96393   0.00000   0.00000   0.00000   0.00000   1.96393
    Y4        4.86808   0.00000   0.00000   0.00000   0.00000   4.86808
    Z4       -0.56745   0.00000   0.00000   0.00000   0.00000  -0.56745
    X5       -0.81843   0.00000   0.00000   0.00000   0.00000  -0.81843
    Y5        4.96216   0.00000   0.00000   0.00000   0.00000   4.96216
    Z5        0.26172   0.00000   0.00000   0.00000   0.00000   0.26172
    X6       -2.08567   0.00000   0.00000   0.00000   0.00000  -2.08567
    Y6        2.42992   0.00000   0.00000   0.00000   0.00000   2.42992
    Z6        0.10118   0.00000   0.00000   0.00000   0.00000   0.10118
    X7       -1.79553   0.00000   0.00000   0.00000   0.00000  -1.79553
    Y7       -1.55662   0.00000   0.00000   0.00000   0.00000  -1.55662
    Z7       -0.20457   0.00000   0.00000   0.00000   0.00000  -0.20457
    X8        2.70328   0.00000   0.00000   0.00000   0.00000   2.70328
    Y8       -1.49606   0.00000   0.00000   0.00000   0.00000  -1.49606
    Z8        0.90068   0.00000   0.00000   0.00000   0.00000   0.90068
    X9        3.28088   0.00000   0.00000   0.00000   0.00000   3.28087
    Y9        2.69140   0.00000   0.00000   0.00000   0.00000   2.69140
    Z9        2.65531   0.00000   0.00000   0.00000   0.00000   2.65531
   X10        2.94127   0.00000   0.00000   0.00000   0.00000   2.94127
   Y10        6.62322   0.00000   0.00000   0.00000   0.00000   6.62322
   Z10        0.00050   0.00000   0.00000   0.00000   0.00000   0.00050
   X11       -0.94887   0.00000   0.00000   0.00000   0.00000  -0.94887
   Y11        5.65196   0.00000   0.00000   0.00000   0.00000   5.65196
   Z11        2.23932   0.00000   0.00000   0.00000   0.00000   2.23932
   X12       -4.13981   0.00000   0.00000   0.00000   0.00000  -4.13981
   Y12        2.48092   0.00000   0.00000   0.00000   0.00000   2.48092
   Z12        0.19645   0.00000   0.00000   0.00000   0.00000   0.19645
   X13       -1.85530   0.00000   0.00000   0.00000   0.00000  -1.85530
   Y13        6.35840   0.00000   0.00000   0.00000   0.00000   6.35840
   Z13       -0.90382   0.00000   0.00000   0.00000   0.00000  -0.90382
   X14        2.06946   0.00000   0.00000   0.00000   0.00000   2.06946
   Y14        4.78478   0.00000   0.00000   0.00000   0.00000   4.78478
   Z14       -2.65514   0.00000   0.00000   0.00000   0.00000  -2.65514
   X15        5.31259   0.00000   0.00000   0.00000   0.00000   5.31259
   Y15        2.53861   0.00000   0.00000   0.00000   0.00000   2.53860
   Z15        0.00179   0.00000   0.00000   0.00000   0.00000   0.00179
   X16        2.54270   0.00000   0.00000   0.00000   0.00000   2.54270
   Y16       -0.35661   0.00000   0.00000   0.00000   0.00000  -0.35661
   Z16       -2.24191   0.00000   0.00000   0.00000   0.00000  -2.24191
         Item               Value     Threshold  Converged?
 Maximum Force            0.000000     0.000015     YES
 RMS     Force            0.000000     0.000010     YES
 Maximum Displacement     0.000000     0.000060     YES
 RMS     Displacement     0.000000     0.000040     YES
 Predicted change in Energy=-3.497912D-16
 Optimization completed.
    -- Stationary point found.
 GradGradGradGradGradGradGradGradGradGradGradGradGradGradGradGradGradGrad

                          Input orientation:                          
 ---------------------------------------------------------------------
 Center     Atomic      Atomic             Coordinates (Angstroms)
 Number     Number       Type             X           Y           Z
 ---------------------------------------------------------------------
      1          6           0       -0.434659    0.133589   -0.056661
      2          6           0        1.061617    0.051559   -0.140024
      3          6           0        1.747964    1.354580    0.300335
      4          6           0        1.039266    2.576076   -0.300281
      5          6           0       -0.433096    2.625860    0.138494
      6          6           0       -1.103688    1.285857    0.053541
      7          1           0       -0.950152   -0.823727   -0.108252
      8          1           0        1.430513   -0.791681    0.476621
      9          1           0        1.736164    1.424230    1.405127
     10          1           0        1.556453    3.504856    0.000265
     11          1           0       -0.502118    2.990889    1.184995
     12          1           0       -2.190692    1.312844    0.103956
     13          1           0       -0.981783    3.364723   -0.478283
     14          1           0        1.095113    2.531997   -1.405041
     15          1           0        2.811301    1.343372    0.000949
     16          1           0        1.345537   -0.188712   -1.186368
 ---------------------------------------------------------------------
                    Distance matrix (angstroms):
                    1          2          3          4          5
     1  C    0.000000
     2  C    1.500839   0.000000
     3  C    2.526283   1.537157   0.000000
     4  C    2.863136   2.529697   1.534615   0.000000
     5  C    2.499901   2.989776   2.529697   1.537157   0.000000
     6  C    1.336962   2.499901   2.863136   2.526283   1.500839
     7  H    1.088507   2.194162   3.491675   3.943769   3.496838
     8  H    2.149275   1.107876   2.176761   3.478281   3.907295
     9  H    2.918057   2.174105   1.107049   2.172748   2.784594
    10  H    3.915765   3.491390   2.179543   1.104737   2.179461
    11  H    3.116156   3.583379   2.919418   2.180362   1.110484
    12  H    2.121343   3.496838   3.943769   3.491674   2.194162
    13  H    3.304140   3.907295   3.478281   2.176761   1.107876
    14  H    3.148126   2.784594   2.172748   1.107049   2.174105
    15  H    3.464556   2.179461   1.104737   2.179543   3.491390
    16  H    2.132888   1.110484   2.180362   2.919418   3.583379
                    6          7          8          9         10
     6  C    0.000000
     7  H    2.121343   0.000000
     8  H    3.304139   2.451666   0.000000
     9  H    3.148126   3.815747   2.421944   0.000000
    10  H    3.464556   5.003146   4.324698   2.516931   0.000000
    11  H    2.132888   4.052717   4.306355   2.740946   2.430116
    12  H    1.088507   2.479699   4.204882   4.138316   4.342438
    13  H    2.149275   4.204882   4.899664   3.834056   2.586753
    14  H    2.918056   4.138315   3.834056   3.087903   1.770360
    15  H    3.915765   4.342438   2.586753   1.770360   2.499331
    16  H    3.116156   2.614529   1.770967   3.077339   3.885232
                   11         12         13         14         15
    11  H    0.000000
    12  H    2.614529   0.000000
    13  H    1.770967   2.451666   0.000000
    14  H    3.077339   3.815746   2.421944   0.000000
    15  H    3.885231   5.003146   4.324698   2.516931   0.000000
    16  H    4.375734   4.052717   4.306356   2.740946   2.430116
                   16
    16  H    0.000000
 Symmetry turned off by external request.
 Stoichiometry    C6H10
 Framework group  C1[X(C6H10)]
 Deg. of freedom    42
 Full point group                 C1      NOp   1
 Rotational constants (GHZ):           4.7112131           4.5413236           2.5447469

 **********************************************************************

            Population analysis using the SCF Density.

 **********************************************************************

 Alpha  occ. eigenvalues --   -1.07419  -0.94993  -0.94372  -0.78955  -0.76556
 Alpha  occ. eigenvalues --   -0.64367  -0.61394  -0.55265  -0.52877  -0.50813
 Alpha  occ. eigenvalues --   -0.48657  -0.47826  -0.47267  -0.41843  -0.41194
 Alpha  occ. eigenvalues --   -0.40130  -0.34560
 Alpha virt. eigenvalues --    0.05574   0.15171   0.15377   0.16945   0.17365
 Alpha virt. eigenvalues --    0.18256   0.20905   0.21340   0.21869   0.22411
 Alpha virt. eigenvalues --    0.22837   0.23395   0.23762   0.23942   0.24170
 Alpha virt. eigenvalues --    0.24413   0.24682
          Condensed to atoms (all electrons):
               1          2          3          4          5          6
     1  C    4.156643   0.000000   0.000000   0.000000   0.000000   0.000000
     2  C    0.000000   4.256194   0.000000   0.000000   0.000000   0.000000
     3  C    0.000000   0.000000   4.245264   0.000000   0.000000   0.000000
     4  C    0.000000   0.000000   0.000000   4.245264   0.000000   0.000000
     5  C    0.000000   0.000000   0.000000   0.000000   4.256194   0.000000
     6  C    0.000000   0.000000   0.000000   0.000000   0.000000   4.156643
     7  H    0.000000   0.000000   0.000000   0.000000   0.000000   0.000000
     8  H    0.000000   0.000000   0.000000   0.000000   0.000000   0.000000
     9  H    0.000000   0.000000   0.000000   0.000000   0.000000   0.000000
    10  H    0.000000   0.000000   0.000000   0.000000   0.000000   0.000000
    11  H    0.000000   0.000000   0.000000   0.000000   0.000000   0.000000
    12  H    0.000000   0.000000   0.000000   0.000000   0.000000   0.000000
    13  H    0.000000   0.000000   0.000000   0.000000   0.000000   0.000000
    14  H    0.000000   0.000000   0.000000   0.000000   0.000000   0.000000
    15  H    0.000000   0.000000   0.000000   0.000000   0.000000   0.000000
    16  H    0.000000   0.000000   0.000000   0.000000   0.000000   0.000000
               7          8          9         10         11         12
     1  C    0.000000   0.000000   0.000000   0.000000   0.000000   0.000000
     2  C    0.000000   0.000000   0.000000   0.000000   0.000000   0.000000
     3  C    0.000000   0.000000   0.000000   0.000000   0.000000   0.000000
     4  C    0.000000   0.000000   0.000000   0.000000   0.000000   0.000000
     5  C    0.000000   0.000000   0.000000   0.000000   0.000000   0.000000
     6  C    0.000000   0.000000   0.000000   0.000000   0.000000   0.000000
     7  H    0.867974   0.000000   0.000000   0.000000   0.000000   0.000000
     8  H    0.000000   0.867465   0.000000   0.000000   0.000000   0.000000
     9  H    0.000000   0.000000   0.867557   0.000000   0.000000   0.000000
    10  H    0.000000   0.000000   0.000000   0.877963   0.000000   0.000000
    11  H    0.000000   0.000000   0.000000   0.000000   0.860940   0.000000
    12  H    0.000000   0.000000   0.000000   0.000000   0.000000   0.867974
    13  H    0.000000   0.000000   0.000000   0.000000   0.000000   0.000000
    14  H    0.000000   0.000000   0.000000   0.000000   0.000000   0.000000
    15  H    0.000000   0.000000   0.000000   0.000000   0.000000   0.000000
    16  H    0.000000   0.000000   0.000000   0.000000   0.000000   0.000000
              13         14         15         16
     1  C    0.000000   0.000000   0.000000   0.000000
     2  C    0.000000   0.000000   0.000000   0.000000
     3  C    0.000000   0.000000   0.000000   0.000000
     4  C    0.000000   0.000000   0.000000   0.000000
     5  C    0.000000   0.000000   0.000000   0.000000
     6  C    0.000000   0.000000   0.000000   0.000000
     7  H    0.000000   0.000000   0.000000   0.000000
     8  H    0.000000   0.000000   0.000000   0.000000
     9  H    0.000000   0.000000   0.000000   0.000000
    10  H    0.000000   0.000000   0.000000   0.000000
    11  H    0.000000   0.000000   0.000000   0.000000
    12  H    0.000000   0.000000   0.000000   0.000000
    13  H    0.867465   0.000000   0.000000   0.000000
    14  H    0.000000   0.867557   0.000000   0.000000
    15  H    0.000000   0.000000   0.877963   0.000000
    16  H    0.000000   0.000000   0.000000   0.860940
 Mulliken charges:
               1
     1  C   -0.156643
     2  C   -0.256194
     3  C   -0.245264
     4  C   -0.245264
     5  C   -0.256194
     6  C   -0.156643
     7  H    0.132026
     8  H    0.132535
     9  H    0.132443
    10  H    0.122037
    11  H    0.139060
    12  H    0.132026
    13  H    0.132535
    14  H    0.132443
    15  H    0.122037
    16  H    0.139060
 Sum of Mulliken charges =   0.00000
 Mulliken charges with hydrogens summed into heavy atoms:
               1
     1  C   -0.024617
     2  C    0.015401
     3  C    0.009216
     4  C    0.009216
     5  C    0.015401
     6  C   -0.024617
 APT charges:
               1
     1  C   -0.156643
     2  C   -0.256194
     3  C   -0.245264
     4  C   -0.245264
     5  C   -0.256194
     6  C   -0.156643
     7  H    0.132026
     8  H    0.132535
     9  H    0.132443
    10  H    0.122037
    11  H    0.139060
    12  H    0.132026
    13  H    0.132535
    14  H    0.132443
    15  H    0.122037
    16  H    0.139060
 Sum of APT charges =   0.00000
 APT charges with hydrogens summed into heavy atoms:
               1
     1  C   -0.024617
     2  C    0.015401
     3  C    0.009216
     4  C    0.009216
     5  C    0.015401
     6  C   -0.024617
 Charge=              0.0000 electrons
 Dipole moment (field-independent basis, Debye):
    X=              0.3215    Y=              0.1867    Z=              0.0002  Tot=              0.3718
 N-N= 1.464415870089D+02 E-N=-2.216747436285D+02  KE=-5.045108475216D+01
  Exact polarizability:       0.000       0.000       0.000       0.000       0.000       0.000
 Approx polarizability:      30.383      -6.860      38.214      -1.076       1.861      20.257
 Unable to Open any file for archive entry.
 1|1|UNPC-SKCH-134-024|FOpt|RPM6|ZDO|C6H10|AL6323|11-Nov-2025|0||# opt=
 (calcfc,tight,cartesian,recalcfc=10) freq pm6 nosymm geom=connectivity
  scf=tight||cyclohexene_opt+freq||0,1|C,-0.4346589238,0.1335886429,-0.
 0566611391|C,1.0616165789,0.0515590421,-0.1400239309|C,1.7479637301,1.
 3545799575,0.3003348435|C,1.0392658388,2.5760758521,-0.3002811842|C,-0
 .4330961693,2.6258596928,0.1384937598|C,-1.1036881973,1.2858567336,0.0
 535408943|H,-0.9501515957,-0.8237270135,-0.1082521415|H,1.430513239,-0
 .7916813091,0.4766207596|H,1.7361642946,1.4242300815,1.4051273539|H,1.
 5564531032,3.5048560833,0.0002647196|H,-0.5021182319,2.9908889003,1.18
 49951613|H,-2.1906921493,1.3128441404,0.1039559489|H,-0.9817834943,3.3
 647228147,-0.4782827069|H,1.0951125991,2.531997374,-1.4050413782|H,2.8
 11300677,1.343371924,0.0009485656|H,1.3455365009,-0.1887115667,-1.1863
 675956||Version=EM64W-G16RevC.01|HF=-0.0061853|RMSD=2.253e-009|RMSF=8.
 299e-010|Dipole=0.1265045,0.073442,0.0000928|Polar=0.,0.,0.,0.,0.,0.|P
 G=C01 [X(C6H10)]||@
 The archive entry for this job was punched.


 IF I HAVE SEEN FARTHER, IT IS BY STANDING ON THE
 SHOULDERS OF GIANTS. -- SIR ISAAC NEWTON
 Job cpu time:       0 days  0 hours  0 minutes 25.0 seconds.
 Elapsed time:       0 days  0 hours  0 minutes  6.6 seconds.
 File lengths (MBytes):  RWF=     11 Int=      0 D2E=      0 Chk=      2 Scr=      1
 Normal termination of Gaussian 16 at Tue Nov 11 12:52:16 2025.
 Link1:  Proceeding to internal job step number  2.
 -------------------------------------------------------------
 #N Geom=AllCheck Guess=TCheck SCRF=Check GenChk RPM6/ZDO Freq
 -------------------------------------------------------------
 1/7=10,10=4,29=7,30=1,38=1,40=1,71=10/1,3;
 2/12=2,15=1,40=1/2;
 3/5=2,14=-4,25=1,41=3900000,70=2,71=2,116=1,135=40,140=1/1,2,3;
 4/5=101,35=1/1;
 5/5=2,32=2,35=1,38=6,98=1/2;
 8/6=4,10=90,11=11/1;
 11/6=1,8=1,9=11,15=111,16=1,31=1/1,2,10;
 10/6=1,31=1/2;
 6/7=2,8=2,9=2,10=2,28=1/1;
 7/8=1,10=1,25=1,30=1/1,2,3,16;
 1/7=10,10=4,30=1,71=10/3;
 99//99;
 Structure from the checkpoint file:  "C:\Users\al6323\OneDrive - Imperial College London\Desktop\TSR20251111\Exercise 1\cyclohexene_opt+freq.chk"
 --------------------
 cyclohexene_opt+freq
 --------------------
 Charge =  0 Multiplicity = 1
 No Z-Matrix found in chk file; cartesian coordinates used.
  C                                                -0.434658923802      0.133588642855     -0.056661139132
  C                                                 1.061616578916      0.051559042108     -0.140023930898
  C                                                 1.747963730134      1.354579957543      0.300334843537
  C                                                 1.039265838777      2.576075852123     -0.300281184246
  C                                                -0.433096169251      2.625859692843      0.138493759752
  C                                                -1.103688197306      1.285856733612      0.053540894276
  H                                                -0.950151595734     -0.823727013533     -0.108252141462
  H                                                 1.430513239049     -0.791681309103      0.476620759588
  H                                                 1.736164294633      1.424230081450      1.405127353906
  H                                                 1.556453103152      3.504856083327      0.000264719635
  H                                                -0.502118231867      2.990888900266      1.184995161325
  H                                                -2.190692149344      1.312844140440      0.103955948869
  H                                                -0.981783494318      3.364722814715     -0.478282706930
  H                                                 1.095112599083      2.531997374044     -1.405041378213
  H                                                 2.811300677015      1.343371924016      0.000948565552
  H                                                 1.345536500863     -0.188711566706     -1.186367595559
 Recover connectivity data from disk.

 GradGradGradGradGradGradGradGradGradGradGradGradGradGradGradGradGradGrad
 Berny optimization.
 Initialization pass.
 Trust Radius=3.00D-01 FncErr=1.00D-07 GrdErr=1.00D-07 EigMax=2.50D+02 EigMin=1.00D-04
 Number of steps in this run=      2 maximum allowed number of steps=      2.
 GradGradGradGradGradGradGradGradGradGradGradGradGradGradGradGradGradGrad

                          Input orientation:                          
 ---------------------------------------------------------------------
 Center     Atomic      Atomic             Coordinates (Angstroms)
 Number     Number       Type             X           Y           Z
 ---------------------------------------------------------------------
      1          6           0       -0.434659    0.133589   -0.056661
      2          6           0        1.061617    0.051559   -0.140024
      3          6           0        1.747964    1.354580    0.300335
      4          6           0        1.039266    2.576076   -0.300281
      5          6           0       -0.433096    2.625860    0.138494
      6          6           0       -1.103688    1.285857    0.053541
      7          1           0       -0.950152   -0.823727   -0.108252
      8          1           0        1.430513   -0.791681    0.476621
      9          1           0        1.736164    1.424230    1.405127
     10          1           0        1.556453    3.504856    0.000265
     11          1           0       -0.502118    2.990889    1.184995
     12          1           0       -2.190692    1.312844    0.103956
     13          1           0       -0.981783    3.364723   -0.478283
     14          1           0        1.095113    2.531997   -1.405041
     15          1           0        2.811301    1.343372    0.000949
     16          1           0        1.345537   -0.188712   -1.186368
 ---------------------------------------------------------------------
                    Distance matrix (angstroms):
                    1          2          3          4          5
     1  C    0.000000
     2  C    1.500839   0.000000
     3  C    2.526283   1.537157   0.000000
     4  C    2.863136   2.529697   1.534615   0.000000
     5  C    2.499901   2.989776   2.529697   1.537157   0.000000
     6  C    1.336962   2.499901   2.863136   2.526283   1.500839
     7  H    1.088507   2.194162   3.491675   3.943769   3.496838
     8  H    2.149275   1.107876   2.176761   3.478281   3.907295
     9  H    2.918057   2.174105   1.107049   2.172748   2.784594
    10  H    3.915765   3.491390   2.179543   1.104737   2.179461
    11  H    3.116156   3.583379   2.919418   2.180362   1.110484
    12  H    2.121343   3.496838   3.943769   3.491674   2.194162
    13  H    3.304140   3.907295   3.478281   2.176761   1.107876
    14  H    3.148126   2.784594   2.172748   1.107049   2.174105
    15  H    3.464556   2.179461   1.104737   2.179543   3.491390
    16  H    2.132888   1.110484   2.180362   2.919418   3.583379
                    6          7          8          9         10
     6  C    0.000000
     7  H    2.121343   0.000000
     8  H    3.304139   2.451666   0.000000
     9  H    3.148126   3.815747   2.421944   0.000000
    10  H    3.464556   5.003146   4.324698   2.516931   0.000000
    11  H    2.132888   4.052717   4.306355   2.740946   2.430116
    12  H    1.088507   2.479699   4.204882   4.138316   4.342438
    13  H    2.149275   4.204882   4.899664   3.834056   2.586753
    14  H    2.918056   4.138315   3.834056   3.087903   1.770360
    15  H    3.915765   4.342438   2.586753   1.770360   2.499331
    16  H    3.116156   2.614529   1.770967   3.077339   3.885232
                   11         12         13         14         15
    11  H    0.000000
    12  H    2.614529   0.000000
    13  H    1.770967   2.451666   0.000000
    14  H    3.077339   3.815746   2.421944   0.000000
    15  H    3.885231   5.003146   4.324698   2.516931   0.000000
    16  H    4.375734   4.052717   4.306356   2.740946   2.430116
                   16
    16  H    0.000000
 Symmetry turned off by external request.
 Stoichiometry    C6H10
 Framework group  C1[X(C6H10)]
 Deg. of freedom    42
 Full point group                 C1      NOp   1
 Rotational constants (GHZ):           4.7112131           4.5413236           2.5447469
 Standard basis: VSTO-6G (5D, 7F)
    34 basis functions,   204 primitive gaussians,    34 cartesian basis functions
    17 alpha electrons       17 beta electrons
       nuclear repulsion energy       146.4415870089 Hartrees.
 Integral buffers will be    131072 words long.
 Regular integral format.
 Two-electron integral symmetry is turned off.
 Do NDO integrals.
 One-electron integrals computed using PRISM.
 NBasis=    34 RedAO= F EigKep=  0.00D+00  NBF=    34
 NBsUse=    34 1.00D-04 EigRej=  0.00D+00 NBFU=    34
 Initial guess from the checkpoint file:  "C:\Users\al6323\OneDrive - Imperial College London\Desktop\TSR20251111\Exercise 1\cyclohexene_opt+freq.chk"
 B after Tr=     0.000000    0.000000    0.000000
         Rot=    1.000000    0.000000    0.000000    0.000000 Ang=   0.00 deg.
 Keep J ints in memory in canonical form, NReq=862326.
 Overlap will be assumed to be unity.
 Requested convergence on RMS density matrix=1.00D-08 within 128 cycles.
 Requested convergence on MAX density matrix=1.00D-06.
 Requested convergence on             energy=1.00D-06.
 No special actions if energy rises.
 SCF Done:  E(RPM6) = -0.618525838593E-02 A.U. after    2 cycles
            NFock=  1  Conv=0.26D-09     -V/T= 0.9999
 Range of M.O.s used for correlation:     1    34
 NBasis=    34 NAE=    17 NBE=    17 NFC=     0 NFV=     0
 NROrb=     34 NOA=    17 NOB=    17 NVA=    17 NVB=    17
 Symmetrizing basis deriv contribution to polar:
 IMax=3 JMax=2 DiffMx= 0.00D+00
 G2DrvN: will do    17 centers at a time, making    1 passes.
 Calling FoFCou, ICntrl=  3107 FMM=F I1Cent=   0 AccDes= 0.00D+00.
 End of G2Drv F.D. properties file   721 does not exist.
 End of G2Drv F.D. properties file   722 does not exist.
 End of G2Drv F.D. properties file   788 does not exist.
          IDoAtm=1111111111111111
          Differentiating once with respect to electric field.
                with respect to dipole field.
          Differentiating once with respect to nuclear coordinates.
          Electric field/nuclear overlap derivatives assumed to be zero.
 Keep J ints in memory in canonical form, NReq=863993.
          There are    51 degrees of freedom in the 1st order CPHF.  IDoFFX=5 NUNeed=    51.
 LinEq1:  Iter=  0 NonCon=    51 RMS=2.51D-01 Max=2.93D+00 NDo=    51
 AX will form    51 AO Fock derivatives at one time.
 LinEq1:  Iter=  1 NonCon=    51 RMS=3.30D-02 Max=1.75D-01 NDo=    51
 LinEq1:  Iter=  2 NonCon=    51 RMS=6.72D-03 Max=5.67D-02 NDo=    51
 LinEq1:  Iter=  3 NonCon=    51 RMS=9.56D-04 Max=5.00D-03 NDo=    51
 LinEq1:  Iter=  4 NonCon=    51 RMS=1.27D-04 Max=5.71D-04 NDo=    51
 LinEq1:  Iter=  5 NonCon=    51 RMS=1.78D-05 Max=8.62D-05 NDo=    51
 LinEq1:  Iter=  6 NonCon=    51 RMS=2.33D-06 Max=9.17D-06 NDo=    51
 LinEq1:  Iter=  7 NonCon=    11 RMS=2.70D-07 Max=1.17D-06 NDo=    51
 LinEq1:  Iter=  8 NonCon=     3 RMS=3.13D-08 Max=1.53D-07 NDo=    11
 LinEq1:  Iter=  9 NonCon=     0 RMS=3.37D-09 Max=1.64D-08 NDo=     3
 Linear equations converged to 1.000D-08 1.000D-07 after     9 iterations.
 Isotropic polarizability for W=    0.000000       42.70 Bohr**3.
 End of Minotr F.D. properties file   721 does not exist.
 End of Minotr F.D. properties file   722 does not exist.
 End of Minotr F.D. properties file   788 does not exist.

 **********************************************************************

            Population analysis using the SCF Density.

 **********************************************************************

 Alpha  occ. eigenvalues --   -1.07419  -0.94993  -0.94372  -0.78955  -0.76556
 Alpha  occ. eigenvalues --   -0.64367  -0.61394  -0.55265  -0.52877  -0.50813
 Alpha  occ. eigenvalues --   -0.48657  -0.47826  -0.47267  -0.41843  -0.41194
 Alpha  occ. eigenvalues --   -0.40130  -0.34560
 Alpha virt. eigenvalues --    0.05574   0.15171   0.15377   0.16945   0.17365
 Alpha virt. eigenvalues --    0.18256   0.20905   0.21340   0.21869   0.22411
 Alpha virt. eigenvalues --    0.22837   0.23395   0.23762   0.23942   0.24170
 Alpha virt. eigenvalues --    0.24413   0.24682
          Condensed to atoms (all electrons):
               1          2          3          4          5          6
     1  C    4.156643   0.000000   0.000000   0.000000   0.000000   0.000000
     2  C    0.000000   4.256194   0.000000   0.000000   0.000000   0.000000
     3  C    0.000000   0.000000   4.245264   0.000000   0.000000   0.000000
     4  C    0.000000   0.000000   0.000000   4.245264   0.000000   0.000000
     5  C    0.000000   0.000000   0.000000   0.000000   4.256194   0.000000
     6  C    0.000000   0.000000   0.000000   0.000000   0.000000   4.156643
     7  H    0.000000   0.000000   0.000000   0.000000   0.000000   0.000000
     8  H    0.000000   0.000000   0.000000   0.000000   0.000000   0.000000
     9  H    0.000000   0.000000   0.000000   0.000000   0.000000   0.000000
    10  H    0.000000   0.000000   0.000000   0.000000   0.000000   0.000000
    11  H    0.000000   0.000000   0.000000   0.000000   0.000000   0.000000
    12  H    0.000000   0.000000   0.000000   0.000000   0.000000   0.000000
    13  H    0.000000   0.000000   0.000000   0.000000   0.000000   0.000000
    14  H    0.000000   0.000000   0.000000   0.000000   0.000000   0.000000
    15  H    0.000000   0.000000   0.000000   0.000000   0.000000   0.000000
    16  H    0.000000   0.000000   0.000000   0.000000   0.000000   0.000000
               7          8          9         10         11         12
     1  C    0.000000   0.000000   0.000000   0.000000   0.000000   0.000000
     2  C    0.000000   0.000000   0.000000   0.000000   0.000000   0.000000
     3  C    0.000000   0.000000   0.000000   0.000000   0.000000   0.000000
     4  C    0.000000   0.000000   0.000000   0.000000   0.000000   0.000000
     5  C    0.000000   0.000000   0.000000   0.000000   0.000000   0.000000
     6  C    0.000000   0.000000   0.000000   0.000000   0.000000   0.000000
     7  H    0.867974   0.000000   0.000000   0.000000   0.000000   0.000000
     8  H    0.000000   0.867465   0.000000   0.000000   0.000000   0.000000
     9  H    0.000000   0.000000   0.867557   0.000000   0.000000   0.000000
    10  H    0.000000   0.000000   0.000000   0.877963   0.000000   0.000000
    11  H    0.000000   0.000000   0.000000   0.000000   0.860940   0.000000
    12  H    0.000000   0.000000   0.000000   0.000000   0.000000   0.867974
    13  H    0.000000   0.000000   0.000000   0.000000   0.000000   0.000000
    14  H    0.000000   0.000000   0.000000   0.000000   0.000000   0.000000
    15  H    0.000000   0.000000   0.000000   0.000000   0.000000   0.000000
    16  H    0.000000   0.000000   0.000000   0.000000   0.000000   0.000000
              13         14         15         16
     1  C    0.000000   0.000000   0.000000   0.000000
     2  C    0.000000   0.000000   0.000000   0.000000
     3  C    0.000000   0.000000   0.000000   0.000000
     4  C    0.000000   0.000000   0.000000   0.000000
     5  C    0.000000   0.000000   0.000000   0.000000
     6  C    0.000000   0.000000   0.000000   0.000000
     7  H    0.000000   0.000000   0.000000   0.000000
     8  H    0.000000   0.000000   0.000000   0.000000
     9  H    0.000000   0.000000   0.000000   0.000000
    10  H    0.000000   0.000000   0.000000   0.000000
    11  H    0.000000   0.000000   0.000000   0.000000
    12  H    0.000000   0.000000   0.000000   0.000000
    13  H    0.867465   0.000000   0.000000   0.000000
    14  H    0.000000   0.867557   0.000000   0.000000
    15  H    0.000000   0.000000   0.877963   0.000000
    16  H    0.000000   0.000000   0.000000   0.860940
 Mulliken charges:
               1
     1  C   -0.156643
     2  C   -0.256194
     3  C   -0.245264
     4  C   -0.245264
     5  C   -0.256194
     6  C   -0.156643
     7  H    0.132026
     8  H    0.132535
     9  H    0.132443
    10  H    0.122037
    11  H    0.139060
    12  H    0.132026
    13  H    0.132535
    14  H    0.132443
    15  H    0.122037
    16  H    0.139060
 Sum of Mulliken charges =   0.00000
 Mulliken charges with hydrogens summed into heavy atoms:
               1
     1  C   -0.024617
     2  C    0.015401
     3  C    0.009216
     4  C    0.009216
     5  C    0.015401
     6  C   -0.024617
 APT charges:
               1
     1  C   -0.129116
     2  C   -0.292146
     3  C   -0.217287
     4  C   -0.217281
     5  C   -0.292144
     6  C   -0.129116
     7  H    0.139660
     8  H    0.134521
     9  H    0.117539
    10  H    0.113935
    11  H    0.132879
    12  H    0.139659
    13  H    0.134521
    14  H    0.117540
    15  H    0.113935
    16  H    0.132879
 Sum of APT charges =  -0.00002
 APT charges with hydrogens summed into heavy atoms:
               1
     1  C    0.010544
     2  C   -0.024745
     3  C    0.014188
     4  C    0.014194
     5  C   -0.024744
     6  C    0.010543
 Charge=              0.0000 electrons
 Dipole moment (field-independent basis, Debye):
    X=              0.3215    Y=              0.1867    Z=              0.0002  Tot=              0.3718
 N-N= 1.464415870089D+02 E-N=-2.216747436282D+02  KE=-5.045108475414D+01
  Exact polarizability:      44.681      -8.597      54.494      -1.352       2.343      28.935
 Approx polarizability:      30.383      -6.860      38.214      -1.076       1.861      20.257
 Calling FoFJK, ICntrl=    100127 FMM=F ISym2X=0 I1Cent= 0 IOpClX= 0 NMat=1 NMatS=1 NMatT=0.
 Full mass-weighted force constant matrix:
 Low frequencies ---   -1.8640   -1.8145   -1.7464    0.0955    0.1656    0.2838
 Low frequencies ---  119.3227  243.6030  343.3253
 Diagonal vibrational polarizability:
        2.3912021       3.2254600       6.5320021
 Harmonic frequencies (cm**-1), IR intensities (KM/Mole), Raman scattering
 activities (A**4/AMU), depolarization ratios for plane and unpolarized
 incident light, reduced masses (AMU), force constants (mDyne/A),
 and normal coordinates:
                      1                      2                      3
                      A                      A                      A
 Frequencies --    119.3227               243.6030               343.3253
 Red. masses --      1.7421                 1.7373                 1.8424
 Frc consts  --      0.0146                 0.0607                 0.1280
 IR Inten    --      0.8573                 0.2428                 0.0135
  Atom  AN      X      Y      Z        X      Y      Z        X      Y      Z
     1   6    -0.01   0.02  -0.09    -0.02  -0.02   0.06     0.01   0.02  -0.18
     2   6     0.00  -0.02   0.14    -0.03  -0.03   0.05     0.02  -0.05   0.04
     3   6     0.03   0.03  -0.06     0.08  -0.02  -0.13    -0.01  -0.01  -0.02
     4   6    -0.04  -0.01  -0.06     0.02   0.08   0.13    -0.01   0.00   0.02
     5   6     0.02  -0.01   0.14    -0.04  -0.01  -0.05    -0.03   0.04  -0.04
     6   6    -0.01   0.02  -0.09    -0.02  -0.01  -0.06     0.03   0.00   0.18
     7   1    -0.02   0.03  -0.26    -0.02  -0.02   0.13    -0.02   0.05  -0.43
     8   1    -0.12   0.09   0.38    -0.03   0.04   0.16    -0.17   0.05   0.30
     9   1     0.18   0.12  -0.06     0.40  -0.06  -0.13     0.03   0.00  -0.02
    10   1    -0.01   0.01  -0.19    -0.04   0.02   0.44    -0.01  -0.01   0.05
    11   1     0.17  -0.25   0.23    -0.19   0.03  -0.08    -0.12   0.34  -0.16
    12   1    -0.02   0.03  -0.26    -0.03  -0.01  -0.13     0.03  -0.04   0.43
    13   1    -0.02   0.15   0.38     0.02  -0.05  -0.16    -0.04  -0.17  -0.30
    14   1    -0.19  -0.09  -0.06     0.15   0.38   0.13     0.02   0.03   0.02
    15   1     0.00   0.01  -0.19    -0.01  -0.04  -0.44    -0.02   0.00  -0.05
    16   1     0.14  -0.27   0.23    -0.07  -0.18   0.08     0.24  -0.27   0.16
                      4                      5                      6
                      A                      A                      A
 Frequencies --    469.4690               480.1009               672.2100
 Red. masses --      2.7739                 4.2418                 1.7010
 Frc consts  --      0.3602                 0.5761                 0.4529
 IR Inten    --      7.2747                 0.2505                43.4823
  Atom  AN      X      Y      Z        X      Y      Z        X      Y      Z
     1   6     0.03   0.14  -0.01     0.17   0.08   0.08    -0.06  -0.14   0.00
     2   6     0.05   0.09  -0.01     0.13  -0.23  -0.05    -0.07   0.02   0.04
     3   6     0.21  -0.04   0.06    -0.12  -0.12  -0.05    -0.01   0.03   0.03
     4   6    -0.07  -0.20   0.06    -0.17  -0.05   0.05    -0.02   0.02   0.03
     5   6    -0.10   0.00  -0.01    -0.13   0.23   0.05     0.02   0.07   0.04
     6   6    -0.14   0.04  -0.01     0.16   0.11  -0.08     0.15  -0.02   0.00
     7   1     0.10   0.10  -0.05     0.02   0.14   0.25    -0.12  -0.07  -0.31
     8   1    -0.02  -0.05  -0.17     0.13  -0.20  -0.01     0.11  -0.06  -0.20
     9   1     0.49  -0.08   0.05    -0.21  -0.20  -0.04     0.29   0.05   0.01
    10   1    -0.08  -0.11  -0.22     0.03  -0.13  -0.01     0.07   0.05  -0.27
    11   1    -0.18   0.13  -0.07    -0.22   0.24   0.03    -0.17   0.30  -0.07
    12   1    -0.13  -0.04  -0.05     0.13  -0.05  -0.25     0.13   0.07  -0.31
    13   1     0.06  -0.01  -0.17    -0.11   0.21   0.01     0.00  -0.13  -0.20
    14   1    -0.17  -0.46   0.05    -0.28  -0.09   0.04    -0.19  -0.23   0.01
    15   1     0.14   0.02  -0.22    -0.10   0.09   0.01    -0.08  -0.04  -0.27
    16   1    -0.02   0.22  -0.07     0.10  -0.31  -0.03    -0.18   0.29  -0.07
                      7                      8                      9
                      A                      A                      A
 Frequencies --    763.9876               806.1742               918.5181
 Red. masses --      1.3111                 1.3468                 2.3140
 Frc consts  --      0.4509                 0.5157                 1.1502
 IR Inten    --     31.3040                 6.5398                18.5022
  Atom  AN      X      Y      Z        X      Y      Z        X      Y      Z
     1   6    -0.03  -0.06  -0.07     0.03   0.02  -0.02    -0.08  -0.11   0.00
     2   6    -0.03   0.02  -0.03     0.01  -0.04   0.09    -0.04   0.12  -0.01
     3   6     0.00   0.02   0.05    -0.03  -0.03   0.05     0.16  -0.01  -0.04
     4   6    -0.02   0.01   0.05    -0.04  -0.02  -0.05    -0.07  -0.14  -0.04
     5   6     0.00   0.04  -0.03    -0.03   0.03  -0.09    -0.08   0.09  -0.01
     6   6     0.06   0.00  -0.07     0.03   0.02   0.02     0.13   0.01   0.00
     7   1    -0.03  -0.08   0.57    -0.02   0.05  -0.24    -0.09  -0.08  -0.04
     8   1    -0.13   0.07   0.12     0.10  -0.23  -0.27    -0.09   0.21   0.17
     9   1     0.22  -0.05   0.04     0.27   0.10   0.03    -0.27   0.04  -0.02
    10   1     0.01   0.05  -0.17    -0.09  -0.07   0.25    -0.15  -0.21   0.44
    11   1    -0.03  -0.17   0.05     0.26  -0.24   0.06     0.06   0.02   0.03
    12   1     0.09  -0.01   0.57     0.03  -0.05   0.24     0.11   0.04  -0.04
    13   1     0.00   0.15   0.12    -0.15   0.20   0.27    -0.14   0.18   0.17
    14   1    -0.07  -0.21   0.04     0.22   0.18  -0.03     0.10   0.26  -0.02
    15   1    -0.05   0.01  -0.17    -0.10  -0.04  -0.25     0.26   0.02   0.44
    16   1     0.16  -0.06   0.05    -0.08   0.34  -0.06    -0.05  -0.04   0.03
                     10                     11                     12
                      A                      A                      A
 Frequencies --    929.1943               942.4592               960.7262
 Red. masses --      1.6650                 1.5033                 1.9413
 Frc consts  --      0.8470                 0.7867                 1.0557
 IR Inten    --      5.9392                 4.4371                 0.6172
  Atom  AN      X      Y      Z        X      Y      Z        X      Y      Z
     1   6     0.03   0.03  -0.06     0.00   0.02  -0.08     0.04   0.02   0.11
     2   6    -0.01   0.08  -0.03     0.01  -0.03   0.11    -0.01   0.10  -0.01
     3   6    -0.12   0.00   0.03     0.02  -0.01  -0.05    -0.12   0.02  -0.05
     4   6    -0.06  -0.11  -0.03     0.00  -0.02  -0.05    -0.05  -0.11   0.05
     5   6     0.07  -0.05   0.03     0.02  -0.02   0.11     0.08  -0.06   0.01
     6   6     0.05   0.01   0.06    -0.02   0.01  -0.08     0.04   0.03  -0.11
     7   1     0.08  -0.02   0.48     0.00  -0.01   0.34     0.07   0.04  -0.54
     8   1    -0.10   0.11   0.09     0.08  -0.20  -0.22     0.12   0.25   0.14
     9   1     0.20   0.05   0.02    -0.16   0.30  -0.05    -0.05  -0.05  -0.02
    10   1    -0.06  -0.17   0.28     0.08  -0.11   0.14     0.03  -0.16   0.12
    11   1     0.15   0.14  -0.04    -0.25   0.22  -0.03    -0.11  -0.04  -0.01
    12   1     0.03   0.08  -0.48     0.00  -0.01   0.34     0.07   0.04   0.54
    13   1     0.05  -0.14  -0.09     0.13  -0.17  -0.22     0.27  -0.02  -0.14
    14   1     0.15   0.15  -0.02    -0.19   0.29  -0.05    -0.07  -0.02   0.02
    15   1    -0.18   0.03  -0.28     0.06  -0.12   0.14    -0.12   0.11  -0.12
    16   1     0.20   0.06   0.04    -0.07   0.33  -0.03    -0.10  -0.08   0.01
                     13                     14                     15
                      A                      A                      A
 Frequencies --    995.0569              1027.9250              1071.6959
 Red. masses --      1.9163                 2.1215                 2.0041
 Frc consts  --      1.1179                 1.3207                 1.3562
 IR Inten    --     15.7964                 9.1583                 0.9079
  Atom  AN      X      Y      Z        X      Y      Z        X      Y      Z
     1   6    -0.09   0.01   0.00     0.11   0.11   0.03    -0.04  -0.04   0.11
     2   6     0.05  -0.13  -0.02    -0.14   0.03  -0.01     0.03  -0.03  -0.12
     3   6     0.06   0.09   0.02     0.04  -0.05   0.03     0.03  -0.01   0.12
     4   6    -0.11  -0.01   0.02    -0.02   0.06  -0.03     0.01   0.03  -0.12
     5   6     0.09  -0.11  -0.02    -0.04  -0.14   0.01    -0.01   0.04   0.12
     6   6     0.04   0.08   0.00     0.15   0.04  -0.03    -0.05  -0.01  -0.11
     7   1    -0.36   0.16   0.03    -0.11   0.21  -0.02    -0.03  -0.03  -0.21
     8   1     0.07  -0.13  -0.09    -0.43  -0.10   0.02    -0.30  -0.07   0.07
     9   1    -0.02  -0.06   0.02    -0.03   0.01   0.02     0.29   0.07   0.08
    10   1    -0.47   0.20   0.05    -0.32   0.22  -0.08    -0.04  -0.01   0.13
    11   1     0.05  -0.02  -0.03    -0.12  -0.12   0.01     0.14   0.42  -0.05
    12   1     0.04   0.39   0.03     0.13  -0.20   0.02    -0.04  -0.01   0.21
    13   1     0.08  -0.13  -0.09    -0.30  -0.33  -0.03    -0.21  -0.23  -0.07
    14   1     0.06  -0.01   0.02     0.00  -0.03  -0.02     0.21   0.21  -0.08
    15   1     0.06   0.51   0.05     0.03  -0.39   0.08    -0.03  -0.03  -0.13
    16   1    -0.01  -0.05  -0.03    -0.17  -0.05  -0.01     0.43  -0.09   0.05
                     16                     17                     18
                      A                      A                      A
 Frequencies --   1108.9166              1122.2681              1156.1695
 Red. masses --      1.1195                 1.2309                 1.1447
 Frc consts  --      0.8111                 0.9134                 0.9015
 IR Inten    --      4.2290                 1.7855                 0.9647
  Atom  AN      X      Y      Z        X      Y      Z        X      Y      Z
     1   6    -0.01  -0.01   0.05     0.00   0.01   0.01    -0.04   0.01   0.00
     2   6     0.01  -0.01  -0.04     0.01   0.05   0.05     0.05   0.00  -0.03
     3   6     0.00   0.01   0.00     0.02  -0.07  -0.02    -0.01  -0.01   0.03
     4   6    -0.01   0.00   0.00    -0.05   0.05   0.02     0.01   0.00   0.03
     5   6     0.00  -0.02  -0.04     0.05  -0.02  -0.05    -0.03  -0.05  -0.03
     6   6     0.02   0.01   0.05     0.00  -0.01  -0.01     0.01   0.04   0.00
     7   1    -0.10   0.05  -0.11     0.16  -0.07  -0.01    -0.24   0.13   0.02
     8   1    -0.32  -0.14  -0.02    -0.33  -0.17  -0.04     0.42   0.24   0.07
     9   1     0.02   0.32  -0.02    -0.07  -0.35   0.01     0.08   0.24   0.01
    10   1     0.13  -0.08   0.01     0.35  -0.17  -0.04     0.28  -0.16   0.02
    11   1    -0.36  -0.31   0.05     0.19   0.01  -0.04     0.09  -0.06  -0.01
    12   1     0.01   0.11  -0.11     0.01   0.17   0.01     0.01   0.27   0.02
    13   1     0.28   0.20  -0.02    -0.31  -0.20   0.04    -0.41  -0.25   0.07
[...]

 Dipole polarizability, Alpha (input orientation).
 (esu units = cm**3 , SI units = C**2 m**2 J**-1)
 Alpha(0;0):
               (au)            (10**-24 esu)      (10**-40 SI)
   iso        0.427032D+02      0.632796D+01      0.704081D+01
   aniso      0.272477D+02      0.403769D+01      0.449254D+01
   xx         0.446809D+02      0.662103D+01      0.736689D+01
   yx        -0.859684D+01     -0.127392D+01     -0.141743D+01
   yy         0.544942D+02      0.807521D+01      0.898488D+01
   zx        -0.135208D+01     -0.200357D+00     -0.222928D+00
   zy         0.234256D+01      0.347131D+00      0.386235D+00
   zz         0.289345D+02      0.428765D+01      0.477066D+01

 First dipole hyperpolarizability, Beta (input orientation).
 ||, _|_  parallel and perpendicular components, (z) with respect to z axis,
 vector components x,y,z.  Values do not include the 1/n! factor of 1/2.
 (esu units = statvolt**-1 cm**4 , SI units = C**3 m**3 J**-2)
 Beta(0;0,0):
               (au)            (10**-30 esu)      (10**-50 SI)
   || (z)    -0.184195D-01     -0.159130D-03     -0.590596D-04
   _|_(z)    -0.613984D-02     -0.530434D-04     -0.196865D-04
   x         -0.125526D+03     -0.108445D+01     -0.402482D+00
   y         -0.728740D+02     -0.629574D+00     -0.233660D+00
   z         -0.920976D-01     -0.795652D-03     -0.295298D-03
   ||         0.290292D+02      0.250790D+00      0.930782D-01
   xxx       -0.355989D+02     -0.307547D+00     -0.114143D+00
   xxy        0.235843D+02      0.203750D+00      0.756198D-01
   yxy       -0.115679D+02     -0.999379D-01     -0.370910D-01
   yyy       -0.509591D+02     -0.440247D+00     -0.163393D+00
   xxz        0.460159D+01      0.397542D-01      0.147544D-01
   yxz       -0.263175D+01     -0.227362D-01     -0.843833D-02
   yyz       -0.464401D+01     -0.401206D-01     -0.148904D-01
   zxz        0.532483D+01      0.460024D-01      0.170733D-01
   zyz        0.308353D+01      0.266393D-01      0.988690D-02
   zzz        0.117162D-01      0.101219D-03      0.375663D-04

 ----------------------------------------------------------------------

 Dipole orientation:
     6         -0.22438658          0.59903357         -0.58367692
     6          0.69322115         -0.66479557          1.78373135
     6         -0.76737581          0.19663213          4.14222571
     6         -1.12566668          3.07441676          4.14222512
     6         -2.58626351          3.93584346          1.78373031
     6         -1.66865526          2.67201365         -0.58367739
     1          0.39891384         -0.28263837         -2.33448209
     1          0.55297202         -2.74441904          1.58730171
     1         -2.63566356         -0.74343594          4.19034969
     1         -2.13162159          3.67815576          5.86902442
     1         -4.62881039          3.51557271          2.01851651
     1         -2.29195526          3.55368509         -2.33448295
     1         -2.44601468          6.01546689          1.58729999
     1          0.74262106          4.01448485          4.19034882
     1          0.23857900         -0.40710618          5.86902531
     1          2.73576808         -0.24452507          2.01851765

 Electric dipole moment (dipole orientation):
 (Debye = 10**-18 statcoulomb cm , SI units = C m)
                  (au)            (Debye)         (10**-30 SI)
   Tot        0.146278D+00      0.371800D+00      0.124019D+01
   x          0.000000D+00      0.000000D+00      0.000000D+00
   y          0.000000D+00      0.000000D+00      0.000000D+00
   z          0.146278D+00      0.371800D+00      0.124019D+01

 Dipole polarizability, Alpha (dipole orientation).
 (esu units = cm**3 , SI units = C**2 m**2 J**-1)
 Alpha(0;0):
               (au)            (10**-24 esu)      (10**-40 SI)
   iso        0.427032D+02      0.632796D+01      0.704081D+01
   aniso      0.272477D+02      0.403769D+01      0.449254D+01
   xx         0.389847D+02      0.577694D+01      0.642771D+01
   yx        -0.146068D+02     -0.216450D+01     -0.240833D+01
   yy         0.494359D+02      0.732564D+01      0.815088D+01
   zx         0.000000D+00      0.000000D+00      0.000000D+00
   zy         0.000000D+00      0.000000D+00      0.000000D+00
   zz         0.396890D+02      0.588131D+01      0.654384D+01

 First dipole hyperpolarizability, Beta (dipole orientation).
 ||, _|_  parallel and perpendicular components, (z) with respect to z axis,
 vector components x,y,z.  Values do not include the 1/n! factor of 1/2.
 (esu units = statvolt**-1 cm**4 , SI units = C**3 m**3 J**-2)
 Beta(0;0,0):
               (au)            (10**-30 esu)      (10**-50 SI)
   || (z)    -0.290292D+02     -0.250790D+00     -0.930782D-01
   _|_(z)    -0.967641D+01     -0.835967D-01     -0.310261D-01
   x         -0.450332D-04     -0.389051D-06     -0.144393D-06
   y          0.542904D-04      0.469027D-06      0.174075D-06
   z         -0.145146D+03     -0.125395D+01     -0.465391D+00
   ||         0.290292D+02      0.250790D+00      0.930782D-01
   xxx        0.000000D+00      0.000000D+00      0.000000D+00
   xxy        0.000000D+00      0.000000D+00      0.000000D+00
   yxy        0.000000D+00      0.000000D+00      0.000000D+00
   yyy        0.000000D+00      0.000000D+00      0.000000D+00
   xxz       -0.111245D+02     -0.961074D-01     -0.356693D-01
   yxz        0.244416D+02      0.211157D+00      0.783687D-01
   yyz       -0.267849D+02     -0.231401D+00     -0.858821D-01
   zxz       -0.151956D-04     -0.131278D-06     -0.487226D-07
   zyz        0.221739D-04      0.191565D-06      0.710976D-07
   zzz       -0.104726D+02     -0.904753D-01     -0.335790D-01

 ----------------------------------------------------------------------
 Unable to Open any file for archive entry.
 1|1|UNPC-SKCH-134-024|Freq|RPM6|ZDO|C6H10|AL6323|11-Nov-2025|0||#N Geo
 m=AllCheck Guess=TCheck SCRF=Check GenChk RPM6/ZDO Freq||cyclohexene_o
 pt+freq||0,1|C,-0.4346589238,0.1335886429,-0.0566611391|C,1.0616165789
 ,0.0515590421,-0.1400239309|C,1.7479637301,1.3545799575,0.3003348435|C
 ,1.0392658388,2.5760758521,-0.3002811842|C,-0.4330961693,2.6258596928,
 0.1384937598|C,-1.1036881973,1.2858567336,0.0535408943|H,-0.9501515957
 ,-0.8237270135,-0.1082521415|H,1.430513239,-0.7916813091,0.4766207596|
 H,1.7361642946,1.4242300815,1.4051273539|H,1.5564531032,3.5048560833,0
 .0002647196|H,-0.5021182319,2.9908889003,1.1849951613|H,-2.1906921493,
 1.3128441404,0.1039559489|H,-0.9817834943,3.3647228147,-0.4782827069|H
 ,1.0951125991,2.531997374,-1.4050413782|H,2.811300677,1.343371924,0.00
 09485656|H,1.3455365009,-0.1887115667,-1.1863675956||Version=EM64W-G16
 RevC.01|HF=-0.0061853|RMSD=2.648e-010|RMSF=8.220e-010|ZeroPoint=0.1357
 997|Thermal=0.1414956|ETot=0.1353104|HTot=0.1362546|GTot=0.1006476|Dip
 ole=0.1265045,0.073442,0.0000928|DipoleDeriv=0.0777538,-0.1824182,-0.0
 427903,-0.083293,-0.2965053,-0.0170355,-0.0312586,0.0064889,-0.1685976
 ,-0.2495903,0.1185372,0.0375511,0.0992563,-0.3274045,0.0291286,0.05356
 26,-0.0260177,-0.2994418,-0.3252527,0.0070461,0.0233252,0.0123644,-0.0
 676751,-0.0080663,0.0034011,0.0072545,-0.2589324,-0.1226326,-0.1033167
 ,-0.0044768,-0.1086176,-0.2702498,-0.0243816,-0.0079059,0.0005229,-0.2
 589612,-0.2144366,0.0793053,-0.043772,0.0985169,-0.3624514,-0.018098,-
 0.0038084,-0.0593684,-0.2995436,-0.3189533,0.143132,0.0359372,0.044027
 8,0.1001135,0.0289312,0.0097274,0.0306911,-0.1685096,0.0617575,0.08397
 5,0.0059185,0.0210361,0.2133984,0.0067939,0.0022537,0.0070132,0.143824
 4,0.109325,-0.0396256,-0.0031131,-0.034732,0.1463603,-0.0130204,-0.003
 5388,-0.0214822,0.1478772,0.1251283,0.0021561,-0.0068626,0.000925,0.07
 84986,0.0037411,0.015828,-0.0016513,0.1489912,0.0919837,0.0264432,0.00
 53795,0.023859,0.1280807,0.0076636,0.0039213,0.0129253,0.1217399,0.110
 2042,-0.038302,0.0019696,-0.0187969,0.1238588,0.0032186,-0.0089187,0.0
 359079,0.1645735,0.2213541,-0.070077,-0.0087948,-0.0071286,0.053817,-0
 .0018374,-0.0071272,0.0013861,0.1438066,0.1051972,-0.0323958,0.0127831
 ,-0.0373033,0.1504584,-0.0037913,0.0203394,-0.0076126,0.1479064,0.0912
 971,0.0202599,0.0001037,0.0214712,0.1123432,0.0078155,-0.0064639,-0.01
 45651,0.1489799,0.1408936,-0.0040526,-0.009305,-0.0014582,0.0791954,-0
 .0009021,-0.0131487,0.0029721,0.1217166,0.0959529,-0.0106703,-0.003855
 8,-0.0301219,0.1381288,-0.0001647,-0.0268551,0.0255213,0.1645561|Polar
 =44.6809139,-8.5968395,54.4942004,-1.3520782,2.3425569,28.9345225|Hype
 rPolar=-35.5989285,23.5842998,-11.5679315,-50.9591486,4.6015939,-2.631
 7458,-4.6440092,5.3248312,3.0835264,0.0117162|PG=C01 [X(C6H10)]|NImag=
 0||0.60871340,-0.18040317,0.76771815,-0.03475978,0.05395731,0.15379979
 ,-0.23376561,0.00501178,0.00951667,0.49581959,0.00855361,-0.05750956,0
 .00014564,0.00377698,0.46018580,0.00668523,0.00115501,-0.06172258,0.00
 689847,0.01130066,0.40109431,-0.02915582,-0.02652301,-0.00792914,-0.08
 350426,-0.05228500,-0.01875112,0.45589592,-0.01681469,-0.00314924,-0.0
 0135544,-0.04906041,-0.15407614,-0.03511844,-0.00141534,0.46435892,-0.
 00347458,-0.00147277,0.00329995,-0.01880914,-0.03576614,-0.07022432,0.
 01427707,-0.00293559,0.42911290,-0.00067073,-0.00194464,0.00030140,0.0
 0722260,-0.00365963,0.00296008,-0.08562315,0.04908594,-0.02558224,0.46
 106921,-0.00234374,-0.00284975,0.00087605,0.00453557,-0.04113961,0.006
 67578,0.05226090,-0.14356682,0.04579450,-0.00434574,0.45921315,0.00035
 123,0.00086778,0.00079280,0.00251202,-0.00009354,0.00557366,-0.0270548
 3,0.04493735,-0.08157709,-0.00449769,-0.01383955,0.42908535,0.01013816
 ,0.00401299,0.00065818,-0.00058792,0.00132376,0.00023479,-0.02886284,0
 .01694953,-0.00119136,-0.18045234,0.00299548,0.04026715,0.47222828,-0.
 00345407,-0.05264384,-0.00467905,0.00068241,-0.00173289,-0.00025251,0.
 02515195,-0.00504406,-0.00220698,0.00622091,-0.05721415,-0.00138530,0.
 01727276,0.48380644,-0.00020391,-0.00557746,0.00604405,0.00010625,-0.0
 0032668,-0.00325646,-0.00728676,0.00075132,0.00556344,0.03967786,-0.00
 111804,-0.07013805,-0.01314513,-0.00031562,0.40106492,-0.19885718,0.23
 499290,0.02263630,-0.03697697,0.03090934,0.00491711,-0.00415856,0.0000
 4837,-0.00093315,-0.02821320,-0.02707504,0.00294997,-0.09499266,-0.074
 20705,-0.00440166,0.57332797,0.22390386,-0.46081196,-0.03850845,0.0234
 4267,-0.00553457,-0.00257003,-0.00035076,0.00063990,0.00012474,-0.0173
 6382,-0.00410650,0.00226326,-0.07066795,-0.19626358,-0.00539601,-0.160
 20545,0.80309562,0.02220687,-0.03874874,-0.06018533,0.00370472,-0.0028
 6504,0.00605007,-0.00091592,0.00017263,0.00079097,0.00506303,0.0061792
 8,0.00331420,-0.00492679,-0.00835941,-0.06174138,-0.02926336,0.0571789
 8,0.15380788,-0.07474316,-0.07792349,-0.00442162,-0.02925159,-0.022644
 29,-0.00029185,-0.00278629,0.00026557,0.00027534,0.00000897,0.00011888
 ,-0.00000003,-0.00065499,0.00159134,0.00061615,0.00707311,0.00923773,0
 .00057319,0.10125026,-0.07658290,-0.17647710,-0.00716898,-0.01030514,-
 0.00215150,-0.00012675,0.00038761,0.00026522,0.00002269,0.00017584,0.0
 0025903,-0.00003119,0.00134853,-0.00135091,-0.00056598,-0.00486122,-0.
 04504575,-0.00361901,0.08925765,0.22459074,-0.00418898,-0.00736823,-0.
 04128807,0.00068555,0.00105516,0.00662576,0.00031579,-0.00022938,0.000
 18840,-0.00005136,-0.00026112,-0.00018502,0.00050617,-0.00096671,0.008
 49801,-0.00050307,-0.00392741,0.00513757,0.00353697,0.01134246,0.02332
 374,-0.02616790,0.02301584,-0.01629043,-0.05275745,0.04348798,-0.03367
 603,0.00418236,-0.00836232,0.00359569,-0.00050603,-0.00130290,-0.00035
 380,0.00007345,-0.00010527,-0.00039092,-0.00246755,-0.00019075,0.00032
 782,-0.00069516,0.00018522,-0.00026787,0.07352543,0.01384283,-0.004102
 85,0.00439744,0.04315162,-0.13443108,0.07484619,-0.00069309,-0.0355223
 2,0.00982828,-0.00118650,-0.00227236,-0.00070472,-0.00013629,0.0001879
 0,0.00007157,-0.00037727,0.00032021,0.00019998,-0.00036543,0.00060361,
 -0.00012950,-0.05442588,0.17461421,-0.00576133,0.00268395,0.00207477,-
 0.03402854,0.07668902,-0.08966940,0.00114955,-0.00100155,0.00498796,-0
 .00040223,-0.00098661,-0.00006871,0.00000105,-0.00000049,-0.00000739,0
 .00033423,0.00016220,-0.00010201,-0.00028971,-0.00009965,0.00032835,0.
 04395747,-0.09247286,0.10364650,-0.00016486,-0.00024615,-0.00030325,0.
 00082678,-0.00710314,-0.01383725,-0.03499583,0.00020771,0.00523985,0.0
 0066349,0.00555949,-0.01517213,-0.00057215,0.00022679,-0.00037995,-0.0
 0026409,-0.00002976,0.00004174,-0.00000173,-0.00004595,-0.00003941,0.0
 0047746,0.00014117,-0.00008003,0.04022689,0.00008581,-0.00015384,-0.00
 006708,-0.00575137,-0.01103314,-0.02577199,0.00016779,-0.03375467,-0.0
 1094546,0.00476724,-0.00549191,0.02435090,0.00012799,0.00006540,0.0000
 2607,0.00006681,0.00015028,-0.00005174,0.00007192,-0.00000427,0.000014
 67,-0.00006947,-0.00058646,-0.00083005,-0.00027233,0.05172293,-0.00032
 188,0.00005595,-0.00011862,-0.00628618,-0.01405648,-0.01667311,0.00332
 331,-0.01127862,-0.21086543,-0.00743630,0.01270361,-0.02173001,-0.0004
 7593,-0.00012225,-0.00013859,0.00004891,0.00005795,-0.00011146,0.00007
 905,-0.00005744,0.00004025,0.00013611,-0.00031873,0.00046109,0.0033506
 9,0.01320770,0.26341260,-0.00004700,0.00016541,0.00000839,-0.00048485,
 0.00151381,-0.00061609,0.00545822,0.00774711,0.00150428,-0.07257534,-0
 .06908605,-0.02308681,-0.02850223,-0.02253616,-0.00265166,-0.00294142,
 0.00002857,0.00085849,-0.00001039,0.00002983,-0.00006012,0.00016341,0.
 00023235,0.00010974,0.00026709,0.00005441,0.00018305,0.09759718,0.0001
 6391,0.00023715,0.00004205,0.00118491,-0.00201995,0.00109337,-0.002715
 22,-0.03595656,-0.00023708,-0.06945921,-0.15882443,-0.04126685,-0.0107
 5471,-0.00194633,0.00042773,0.00013481,0.00007226,-0.00008275,-0.00000
 276,-0.00002910,-0.00000945,-0.00019026,-0.00039888,-0.00010904,-0.000
 14446,-0.00032084,0.00045451,0.08522527,0.20272858,-0.00004450,-0.0001
 2459,-0.00001858,-0.00059804,0.00111952,-0.00034482,0.00189373,0.00943
 825,0.00423265,-0.02458262,-0.04366891,-0.04865092,0.00465982,0.004237
 22,0.00403750,0.00105006,0.00004312,-0.00009767,-0.00001343,-0.0000217
 3,0.00001288,0.00009960,0.00015315,0.00009204,-0.00001152,0.00076777,0
 .00004749,0.02700721,0.04748889,0.05374691,-0.00027735,-0.00068048,0.0
 0003259,-0.00006132,0.00003251,-0.00027804,-0.00011692,0.00014888,0.00
 011265,-0.01342128,0.00760345,0.02805235,-0.03375284,0.00249141,0.0069
 5059,0.00168592,-0.00826032,-0.01026436,0.00010783,-0.00005882,0.00059
 490,-0.00004252,0.00002308,0.00000162,-0.00035518,0.00029542,-0.000086
 75,-0.00019145,-0.00009667,0.00080047,0.04745536,-0.00086867,-0.001178
 82,0.00004998,-0.00004977,0.00010456,-0.00046473,0.00009209,-0.0002824
 4,-0.00005857,0.00386165,0.00198443,-0.00522896,0.00379538,-0.05064144
 ,-0.05487602,-0.00756436,-0.02261746,-0.02684511,0.00012681,-0.0002335
 9,0.00126452,-0.00002902,-0.00000992,-0.00001296,0.00039482,-0.0001294
 4,0.00005860,-0.00049380,0.00039848,0.00039268,-0.00064090,0.06823202,
 0.00002516,0.00062596,-0.00011794,-0.00004352,0.00015335,-0.00011755,-
 0.00006006,-0.00023416,-0.00006752,0.01481710,-0.00509807,-0.01487617,
 0.00984980,-0.05317104,-0.18977204,-0.00533638,-0.01630047,-0.00743271
 ,-0.00011634,-0.00006949,0.00011708,-0.00000206,-0.00001051,0.00005799
 ,-0.00004858,0.00002604,0.00017007,0.00034363,0.00030750,0.00021714,-0
 .01568464,0.07336103,0.23385014,-0.03035429,0.01650500,0.00283013,0.00
 008538,0.00092633,0.00017739,0.00032415,-0.00000420,0.00002767,-0.0002
 0382,-0.00108629,-0.00015735,-0.02300155,-0.01387348,0.00021345,-0.218
 01273,0.00520558,0.00822743,0.00057280,0.00074544,-0.00007970,-0.00017
 880,0.00012719,0.00002032,-0.00003229,-0.00000554,-0.00005139,-0.00022
 191,-0.00001559,0.00005473,-0.00021784,-0.00050733,-0.00031003,0.27115
 915,0.03060396,-0.00762290,-0.00226674,0.00116872,-0.00209082,-0.00082
 130,-0.00006139,-0.00005638,-0.00001543,-0.00120878,-0.00231688,-0.000
 23080,-0.02621194,-0.00840083,0.00015219,0.00386442,-0.03322600,0.0002
 9443,0.00086257,-0.00034573,0.00013400,0.00026689,0.00005184,-0.000068
 69,0.00000380,-0.00000380,0.00000034,-0.00045099,0.00007158,0.00013539
 ,-0.00054173,-0.00041960,-0.00004890,-0.00773817,0.05470379,0.00364064
 ,-0.00150056,0.00514229,0.00058001,-0.00092480,0.00849774,0.00025278,-
 0.00008475,-0.00018477,0.00004145,-0.00039078,0.00018788,-0.00130544,-
 0.00009696,0.00662467,0.00828422,-0.00000497,-0.04126956,-0.00007251,0
 .00013802,-0.00284106,0.00111899,-0.00010662,-0.00008715,-0.00005151,-
 0.00000761,0.00002290,-0.00001485,0.00000981,0.00002445,-0.00003323,0.
 00003790,0.00008279,-0.01133664,0.00256420,0.02330182,-0.00060898,-0.0
 0143764,-0.00033759,0.00005562,-0.00012628,0.00013181,-0.00291212,0.00
 018584,0.00078441,-0.02964847,0.01863813,-0.01034412,-0.07693660,0.056
 97523,-0.04824886,0.00633822,-0.00473003,0.00426040,0.00016525,-0.0000
 6860,-0.00046216,-0.00002018,-0.00000065,-0.00000950,0.00003684,-0.000
 09628,0.00009986,-0.00091403,-0.00001701,-0.00015970,0.00203556,0.0016
 3797,-0.00445739,0.00020613,-0.00088070,0.00024448,0.10276083,-0.00125
 112,-0.00153726,-0.00018766,-0.00009551,0.00020534,0.00037512,0.000069
 12,0.00013184,-0.00004202,0.01095868,-0.00168040,0.00175849,0.05731375
 ,-0.11022997,0.06640659,0.00443430,-0.03662849,0.01630742,0.00007171,-
 0.00029104,-0.00102471,0.00002411,-0.00003359,0.00000576,0.00001303,0.
 00002002,0.00004400,-0.00010507,0.00030497,0.00001691,-0.00033677,0.00
 451915,0.00053948,-0.00033009,-0.00029853,0.00016758,-0.07113710,0.145
 35760,-0.00030791,-0.00021234,-0.00010297,-0.00000010,-0.00000111,-0.0
 0000701,0.00105321,-0.00013961,-0.00006681,0.00026874,-0.00147879,0.00
 497710,-0.04967422,0.06762603,-0.08969154,0.00053344,0.00630415,0.0020
 9445,0.00004992,-0.00005193,-0.00008829,-0.00000032,0.00001108,-0.0000
 0741,-0.00003417,0.00005836,-0.00003119,-0.00013001,-0.00014072,0.0000
 5428,-0.01126085,0.01239928,-0.02173896,0.00022984,0.00020083,0.000329
 11,0.05846216,-0.08407692,0.10366773,0.00006446,-0.00012078,0.00002434
 ,0.00006083,-0.00023429,0.00016579,0.00049115,0.00487343,-0.01359607,-
 0.03391496,-0.00045404,0.00710099,-0.01370116,0.00249888,0.02924666,-0
 .00022591,0.00011999,0.00020858,-0.00001161,-0.00001739,0.00003211,-0.
 00001155,-0.00006846,-0.00003376,-0.00044633,0.00131193,-0.00063121,0.
 00225777,-0.00377627,-0.01025829,-0.00286445,0.00015524,0.00100360,0.0
 0000750,0.00006674,0.00000682,-0.00029511,0.00037084,0.00075996,0.0486
 9100,-0.00021723,-0.00017807,-0.00006218,-0.00013556,-0.00056862,0.000
 34249,0.00564789,-0.00532066,0.02526656,-0.00041324,-0.03484081,-0.009
 86584,0.00115524,0.00344745,-0.00074835,-0.00021180,-0.00009352,0.0002
 2985,-0.00000813,-0.00002463,0.00004091,0.00004073,0.00006854,0.000058
 70,0.00136634,-0.00197747,0.00113005,-0.00298001,-0.00380133,-0.019903
 39,0.00005086,0.00026993,-0.00012777,-0.00005132,-0.00001354,0.0000414
 0,0.00058192,0.00018540,-0.00034167,-0.00508425,0.04328335,-0.00007457
 ,-0.00001389,-0.00011156,0.00034229,0.00035213,-0.00013759,-0.00731681
 ,0.01277262,-0.02172877,0.00834059,-0.00836678,-0.21086039,0.01532776,
 -0.00149528,-0.01662563,0.00011076,0.00030737,-0.00011793,0.00002511,0
 .00004474,0.00002302,-0.00008770,-0.00006491,-0.00003133,-0.00066730,0
 .00110908,-0.00061285,-0.00335165,-0.00787715,-0.01357523,0.00099559,-
 0.00005893,-0.00032849,0.00001062,-0.00009712,0.00004023,0.00020882,-0
 .00027600,0.00046176,-0.01337003,0.00349335,0.26338806,-0.00059740,-0.
 00120176,-0.00035507,-0.02280503,-0.01400312,0.00090503,-0.19738252,0.
 00171253,0.04712212,-0.02359700,0.01387770,-0.00056173,-0.00047898,0.0
 0118167,-0.00064343,0.00030899,-0.00003935,-0.00004036,-0.00020122,-0.
 00002732,-0.00000143,-0.00004760,-0.00051215,0.00018624,-0.00525479,0.
 00048946,0.00851193,0.00013815,0.00046131,0.00012857,-0.00000977,0.000
 01145,0.0