 Default is to use a total of   8 processors:
                                8 via shared-memory
                                1 via Linda
 Entering Link 1 = C:\G16W\l1.exe PID=     22260.
  
 Copyright (c) 1988-2019, Gaussian, Inc.  All Rights Reserved.
  
 This is part of the Gaussian(R) 16 program.  It is based on
 the Gaussian(R) 09 system (copyright 2009, Gaussian, Inc.),
 the Gaussian(R) 03 system (copyright 2003, Gaussian, Inc.),
 the Gaussian(R) 98 system (copyright 1998, Gaussian, Inc.),
 the Gaussian(R) 94 system (copyright 1995, Gaussian, Inc.),
 the Gaussian 92(TM) system (copyright 1992, Gaussian, Inc.),
 the Gaussian 90(TM) system (copyright 1990, Gaussian, Inc.),
 the Gaussian 88(TM) system (copyright 1988, Gaussian, Inc.),
 the Gaussian 86(TM) system (copyright 1986, Carnegie Mellon
 University), and the Gaussian 82(TM) system (copyright 1983,
 Carnegie Mellon University). Gaussian is a federally registered
 trademark of Gaussian, Inc.
  
 This software contains proprietary and confidential information,
 including trade secrets, belonging to Gaussian, Inc.
  
 This software is provided under written license and may be
 used, copied, transmitted, or stored only in accord with that
 written license.
  
 The following legend is applicable only to US Government
 contracts under FAR:
  
                    RESTRICTED RIGHTS LEGEND
  
 Use, reproduction and disclosure by the US Government is
 subject to restrictions as set forth in subparagraphs (a)
 and (c) of the Commercial Computer Software - Restricted
 Rights clause in FAR 52.227-19.
  
 Gaussian, Inc.
 340 Quinnipiac St., Bldg. 40, Wallingford CT 06492
  
  
 ---------------------------------------------------------------
 Warning -- This program may not be used in any manner that
 competes with the business of Gaussian, Inc. or will provide
 assistance to any competitor of Gaussian, Inc.  The licensee
 of this program is prohibited from giving any competitor of
 Gaussian, Inc. access to this program.  By using this program,
 the user acknowledges that Gaussian, Inc. is engaged in the
 business of creating and licensing software in the field of
 computational chemistry and represents and warrants to the
 licensee that it is not a competitor of Gaussian, Inc. and that
 it will not use this program in any manner prohibited above.
 ---------------------------------------------------------------
  

 Cite this work as:
 Gaussian 16, Revision C.01,
 M. J. Frisch, G. W. Trucks, H. B. Schlegel, G. E. Scuseria, 
 M. A. Robb, J. R. Cheeseman, G. Scalmani, V. Barone, 
 G. A. Petersson, H. Nakatsuji, X. Li, M. Caricato, A. V. Marenich, 
 J. Bloino, B. G. Janesko, R. Gomperts, B. Mennucci, H. P. Hratchian, 
 J. V. Ortiz, A. F. Izmaylov, J. L. Sonnenberg, D. Williams-Young, 
 F. Ding, F. Lipparini, F. Egidi, J. Goings, B. Peng, A. Petrone, 
 T. Henderson, D. Ranasinghe, V. G. Zakrzewski, J. Gao, N. Rega, 
 G. Zheng, W. Liang, M. Hada, M. Ehara, K. Toyota, R. Fukuda, 
 J. Hasegawa, M. Ishida, T. Nakajima, Y. Honda, O. Kitao, H. Nakai, 
 T. Vreven, K. Throssell, J. A. Montgomery, Jr., J. E. Peralta, 
 F. Ogliaro, M. J. Bearpark, J. J. Heyd, E. N. Brothers, K. N. Kudin, 
 V. N. Staroverov, T. A. Keith, R. Kobayashi, J. Normand, 
 K. Raghavachari, A. P. Rendell, J. C. Burant, S. S. Iyengar, 
 J. Tomasi, M. Cossi, J. M. Millam, M. Klene, C. Adamo, R. Cammi, 
 J. W. Ochterski, R. L. Martin, K. Morokuma, O. Farkas, 
 J. B. Foresman, and D. J. Fox, Gaussian, Inc., Wallingford CT, 2019.
 
 ******************************************
 Gaussian 16:  EM64W-G16RevC.01 30-May-2019
                10-Nov-2025 
 ******************************************
 %mem=6GB
 %chk=C:\Users\al6323\OneDrive - Imperial College London\Desktop\TSR20251110\ethe
 ne_opt+freq.chk
 %nprocshared=8
 Will use up to    8 processors via shared memory.
 Default route: MaxDisk=10GB
 --------------------------------
 # opt freq pm6 geom=connectivity
 --------------------------------
 1/18=20,19=15,26=1,38=1,57=2/1,3;
 2/9=110,12=2,17=6,18=5,40=1/2;
 3/5=2,25=1,41=3900000,71=1/1,2,3;
 4/35=1/1;
 5/5=2,35=1,38=5/2;
 6/7=2,8=2,9=2,10=2,28=1/1;
 7//1,2,3,16;
 1/18=20,19=15,26=1/3(2);
 2/9=110/2;
 99//99;
 2/9=110/2;
 3/5=2,25=1,41=3900000,71=1,135=20/1,2,3;
 4/5=5,16=3,35=1/1;
 5/5=2,35=1,38=5/2;
 7//1,2,3,16;
 1/18=20,19=15,26=1/3(-5);
 2/9=110/2;
 6/7=2,8=2,9=2,10=2,19=2,28=1/1;
 99/9=1/99;
 ---------------
 ethene_opt+freq
 ---------------
 Symbolic Z-matrix:
 Charge =  0 Multiplicity = 1
 C                    -2.64151  -0.37736   0. 
 H                    -2.10835  -1.30506   0. 
 H                    -3.71151  -0.37736   0. 
 C                    -1.96624   0.79762   0. 
 H                    -2.4994    1.72532   0. 
 H                    -0.89624   0.79762   0. 
 

 GradGradGradGradGradGradGradGradGradGradGradGradGradGradGradGradGradGrad
 Berny optimization.
 Initialization pass.
                           ----------------------------
                           !    Initial Parameters    !
                           ! (Angstroms and Degrees)  !
 --------------------------                            --------------------------
 ! Name  Definition              Value          Derivative Info.                !
 --------------------------------------------------------------------------------
 ! R1    R(1,2)                  1.07           estimate D2E/DX2                !
 ! R2    R(1,3)                  1.07           estimate D2E/DX2                !
 ! R3    R(1,4)                  1.3552         estimate D2E/DX2                !
 ! R4    R(4,5)                  1.07           estimate D2E/DX2                !
 ! R5    R(4,6)                  1.07           estimate D2E/DX2                !
 ! A1    A(2,1,3)              119.8865         estimate D2E/DX2                !
 ! A2    A(2,1,4)              120.2269         estimate D2E/DX2                !
 ! A3    A(3,1,4)              119.8865         estimate D2E/DX2                !
 ! A4    A(1,4,5)              120.2269         estimate D2E/DX2                !
 ! A5    A(1,4,6)              119.8865         estimate D2E/DX2                !
 ! A6    A(5,4,6)              119.8865         estimate D2E/DX2                !
 ! D1    D(2,1,4,5)            180.0            estimate D2E/DX2                !
 ! D2    D(2,1,4,6)              0.0            estimate D2E/DX2                !
 ! D3    D(3,1,4,5)              0.0            estimate D2E/DX2                !
 ! D4    D(3,1,4,6)            180.0            estimate D2E/DX2                !
 --------------------------------------------------------------------------------
 Trust Radius=3.00D-01 FncErr=1.00D-07 GrdErr=1.00D-07 EigMax=2.50D+02 EigMin=1.00D-04
 Number of steps in this run=     25 maximum allowed number of steps=    100.
 GradGradGradGradGradGradGradGradGradGradGradGradGradGradGradGradGradGrad

                          Input orientation:                          
 ---------------------------------------------------------------------
 Center     Atomic      Atomic             Coordinates (Angstroms)
 Number     Number       Type             X           Y           Z
 ---------------------------------------------------------------------
      1          6           0       -2.641509   -0.377358    0.000000
      2          1           0       -2.108346   -1.305063    0.000000
      3          1           0       -3.711509   -0.377358    0.000000
      4          6           0       -1.966235    0.797619    0.000000
      5          1           0       -2.499399    1.725324    0.000000
      6          1           0       -0.896235    0.797619    0.000000
 ---------------------------------------------------------------------
                    Distance matrix (angstroms):
                    1          2          3          4          5
     1  C    0.000000
     2  H    1.070000   0.000000
     3  H    1.070000   1.852234   0.000000
     4  C    1.355200   2.107479   2.103938   0.000000
     5  H    2.107479   3.055514   2.427032   1.070000   0.000000
     6  H    2.103938   2.427032   3.050630   1.070000   1.852234
                    6
     6  H    0.000000
 Stoichiometry    C2H4
 Framework group  C2H[SGH(C2H4)]
 Deg. of freedom     5
 Full point group                 C2H     NOp   4
 Largest Abelian subgroup         C2H     NOp   4
 Largest concise Abelian subgroup C2      NOp   2
                         Standard orientation:                         
 ---------------------------------------------------------------------
 Center     Atomic      Atomic             Coordinates (Angstroms)
 Number     Number       Type             X           Y           Z
 ---------------------------------------------------------------------
      1          6           0        0.000000    0.677600    0.000000
      2          1           0       -0.924521    1.216266    0.000000
      3          1           0        0.927705    1.210764    0.000000
      4          6           0        0.000000   -0.677600    0.000000
      5          1           0        0.924521   -1.216266    0.000000
      6          1           0       -0.927705   -1.210764    0.000000
 ---------------------------------------------------------------------
 Rotational constants (GHZ):         146.1648708          29.8053192          24.7569809
 Standard basis: VSTO-6G (5D, 7F)
 There are     5 symmetry adapted cartesian basis functions of AG  symmetry.
 There are     1 symmetry adapted cartesian basis functions of BG  symmetry.
 There are     1 symmetry adapted cartesian basis functions of AU  symmetry.
 There are     5 symmetry adapted cartesian basis functions of BU  symmetry.
 There are     5 symmetry adapted basis functions of AG  symmetry.
 There are     1 symmetry adapted basis functions of BG  symmetry.
 There are     1 symmetry adapted basis functions of AU  symmetry.
 There are     5 symmetry adapted basis functions of BU  symmetry.
    12 basis functions,    72 primitive gaussians,    12 cartesian basis functions
     6 alpha electrons        6 beta electrons
       nuclear repulsion energy        27.5016755838 Hartrees.
 Integral buffers will be    131072 words long.
 Regular integral format.
 Two-electron integral symmetry is turned off.
 Do NDO integrals.
 One-electron integrals computed using PRISM.
 NBasis=    12 RedAO= T EigKep=  1.00D+00  NBF=     5     1     1     5
 NBsUse=    12 1.00D-06 EigRej= -1.00D+00 NBFU=     5     1     1     5
 Simple Huckel Guess.
 Initial guess orbital symmetries:
       Occupied  (AG) (BU) (BU) (AG) (AG) (AU)
       Virtual   (BG) (BU) (BU) (AG) (AG) (BU)
 The electronic state of the initial guess is 1-AG.
 Keep J ints in memory in canonical form, NReq=859587.
 Overlap will be assumed to be unity.
 Requested convergence on RMS density matrix=1.00D-08 within 128 cycles.
 Requested convergence on MAX density matrix=1.00D-06.
 Requested convergence on             energy=1.00D-06.
 No special actions if energy rises.
 Fock symm off for IB=4 I1=    1 I=    8 J=    2 Cut=1.00D-07 Err=2.42D-03
 Fock matrix is not symmetric: symmetry in diagonalization turned off.
 SCF Done:  E(RPM6) =  0.276507182495E-01 A.U. after   10 cycles
            NFock=  9  Conv=0.13D-08     -V/T= 1.0016

 **********************************************************************

            Population analysis using the SCF Density.

 **********************************************************************

 Orbital symmetries:
       Occupied  (AG) (BU) (BU) (AG) (AG) (AU)
       Virtual   (BG) (BU) (BU) (BU) (AG) (AG)
 The electronic state is 1-AG.
 Alpha  occ. eigenvalues --   -0.98672  -0.75235  -0.60012  -0.51938  -0.45522
 Alpha  occ. eigenvalues --   -0.38745
 Alpha virt. eigenvalues --    0.03710   0.20273   0.20969   0.23200   0.23657
 Alpha virt. eigenvalues --    0.24332
          Condensed to atoms (all electrons):
               1          2          3          4          5          6
     1  C    4.287646   0.000000   0.000000   0.000000   0.000000   0.000000
     2  H    0.000000   0.856038   0.000000   0.000000   0.000000   0.000000
     3  H    0.000000   0.000000   0.856316   0.000000   0.000000   0.000000
     4  C    0.000000   0.000000   0.000000   4.287646   0.000000   0.000000
     5  H    0.000000   0.000000   0.000000   0.000000   0.856038   0.000000
     6  H    0.000000   0.000000   0.000000   0.000000   0.000000   0.856316
 Mulliken charges:
               1
     1  C   -0.287646
     2  H    0.143962
     3  H    0.143684
     4  C   -0.287646
     5  H    0.143962
     6  H    0.143684
 Sum of Mulliken charges =   0.00000
 Mulliken charges with hydrogens summed into heavy atoms:
               1
     1  C    0.000000
     4  C    0.000000
 Charge=              0.0000 electrons
 Dipole moment (field-independent basis, Debye):
    X=              0.0000    Y=              0.0000    Z=              0.0000  Tot=              0.0000
 N-N= 2.750167558380D+01 E-N=-3.018848945045D+01  KE=-1.735709025689D+01
 Symmetry AG   KE=-8.716022348426D+00
 Symmetry BG   KE=-7.787375732023D-17
 Symmetry AU   KE=-3.065068422669D+00
 Symmetry BU   KE=-5.575999485798D+00
 Calling FoFJK, ICntrl=      2127 FMM=F ISym2X=1 I1Cent= 0 IOpClX= 0 NMat=1 NMatS=1 NMatT=0.
 ***** Axes restored to original set *****
 -------------------------------------------------------------------
 Center     Atomic                   Forces (Hartrees/Bohr)
 Number     Number              X              Y              Z
 -------------------------------------------------------------------
      1        6           0.019656103    0.035259376    0.000000000
      2        1          -0.003659252   -0.007206364    0.000000000
      3        1          -0.004679180   -0.007146454    0.000000000
      4        6          -0.019656103   -0.035259376    0.000000000
      5        1           0.003659252    0.007206364    0.000000000
      6        1           0.004679180    0.007146454    0.000000000
 -------------------------------------------------------------------
 Cartesian Forces:  Max     0.035259376 RMS     0.014015366

 GradGradGradGradGradGradGradGradGradGradGradGradGradGradGradGradGradGrad
 Berny optimization.
 FormGI is forming the generalized inverse of G from B-inverse, IUseBI=4.
 Internal  Forces:  Max     0.023765690 RMS     0.007797613
 Search for a local minimum.
 Step number   1 out of a maximum of   25
 All quantities printed in internal units (Hartrees-Bohrs-Radians)
 Mixed Optimization -- RFO/linear search
 Second derivative matrix not updated -- first step.
 The second derivative matrix:
                          R1        R2        R3        R4        R5
           R1           0.37230
           R2           0.00000   0.37230
           R3           0.00000   0.00000   0.53930
           R4           0.00000   0.00000   0.00000   0.37230
           R5           0.00000   0.00000   0.00000   0.00000   0.37230
           A1           0.00000   0.00000   0.00000   0.00000   0.00000
           A2           0.00000   0.00000   0.00000   0.00000   0.00000
           A3           0.00000   0.00000   0.00000   0.00000   0.00000
           A4           0.00000   0.00000   0.00000   0.00000   0.00000
           A5           0.00000   0.00000   0.00000   0.00000   0.00000
           A6           0.00000   0.00000   0.00000   0.00000   0.00000
           D1           0.00000   0.00000   0.00000   0.00000   0.00000
           D2           0.00000   0.00000   0.00000   0.00000   0.00000
           D3           0.00000   0.00000   0.00000   0.00000   0.00000
           D4           0.00000   0.00000   0.00000   0.00000   0.00000
                          A1        A2        A3        A4        A5
           A1           0.16000
           A2           0.00000   0.16000
           A3           0.00000   0.00000   0.16000
           A4           0.00000   0.00000   0.00000   0.16000
           A5           0.00000   0.00000   0.00000   0.00000   0.16000
           A6           0.00000   0.00000   0.00000   0.00000   0.00000
           D1           0.00000   0.00000   0.00000   0.00000   0.00000
           D2           0.00000   0.00000   0.00000   0.00000   0.00000
           D3           0.00000   0.00000   0.00000   0.00000   0.00000
           D4           0.00000   0.00000   0.00000   0.00000   0.00000
                          A6        D1        D2        D3        D4
           A6           0.16000
           D1           0.00000   0.02681
           D2           0.00000   0.00000   0.02681
           D3           0.00000   0.00000   0.00000   0.02681
           D4           0.00000   0.00000   0.00000   0.00000   0.02681
 ITU=  0
     Eigenvalues ---    0.02681   0.02681   0.02681   0.16000   0.16000
     Eigenvalues ---    0.16000   0.16000   0.37230   0.37230   0.37230
     Eigenvalues ---    0.37230   0.53930
 RFO step:  Lambda=-2.88535572D-03 EMin= 2.68137408D-02
 Linear search not attempted -- first point.
 Iteration  1 RMS(Cart)=  0.02182748 RMS(Int)=  0.00046042
 Iteration  2 RMS(Cart)=  0.00047115 RMS(Int)=  0.00000007
 Iteration  3 RMS(Cart)=  0.00000008 RMS(Int)=  0.00000000
 ClnCor:  largest displacement from symmetrization is 1.83D-13 for atom     6.
 Variable       Old X    -DE/DX   Delta X   Delta X   Delta X     New X
                                 (Linear)    (Quad)   (Total)
    R1        2.02201   0.00442   0.00000   0.01179   0.01179   2.03380
    R2        2.02201   0.00468   0.00000   0.01247   0.01247   2.03448
    R3        2.56096  -0.02377   0.00000  -0.04383  -0.04383   2.51712
    R4        2.02201   0.00442   0.00000   0.01179   0.01179   2.03380
    R5        2.02201   0.00468   0.00000   0.01247   0.01247   2.03448
    A1        2.09241  -0.00938   0.00000  -0.05756  -0.05756   2.03486
    A2        2.09836   0.00430   0.00000   0.02640   0.02640   2.12476
    A3        2.09241   0.00507   0.00000   0.03116   0.03116   2.12357
    A4        2.09836   0.00430   0.00000   0.02640   0.02640   2.12476
    A5        2.09241   0.00507   0.00000   0.03116   0.03116   2.12357
    A6        2.09241  -0.00938   0.00000  -0.05756  -0.05756   2.03486
    D1        3.14159   0.00000   0.00000   0.00000   0.00000   3.14159
    D2        0.00000   0.00000   0.00000   0.00000   0.00000   0.00000
    D3        0.00000   0.00000   0.00000   0.00000   0.00000   0.00000
    D4        3.14159   0.00000   0.00000   0.00000   0.00000   3.14159
         Item               Value     Threshold  Converged?
 Maximum Force            0.023766     0.000450     NO 
 RMS     Force            0.007798     0.000300     NO 
 Maximum Displacement     0.040776     0.001800     NO 
 RMS     Displacement     0.021982     0.001200     NO 
 Predicted change in Energy=-1.460668D-03
 GradGradGradGradGradGradGradGradGradGradGradGradGradGradGradGradGradGrad

                          Input orientation:                          
 ---------------------------------------------------------------------
 Center     Atomic      Atomic             Coordinates (Angstroms)
 Number     Number       Type             X           Y           Z
 ---------------------------------------------------------------------
      1          6           0       -2.636511   -0.366854    0.000000
      2          1           0       -2.126338   -1.314492    0.000000
      3          1           0       -3.712632   -0.398936    0.000000
      4          6           0       -1.971234    0.787114    0.000000
      5          1           0       -2.481406    1.734752    0.000000
      6          1           0       -0.895112    0.819196    0.000000
 ---------------------------------------------------------------------
                    Distance matrix (angstroms):
                    1          2          3          4          5
     1  C    0.000000
     2  H    1.076241   0.000000
     3  H    1.076600   1.831549   0.000000
     4  C    1.332004   2.107322   2.106937   0.000000
     5  H    2.107322   3.069847   2.463441   1.076241   0.000000
     6  H    2.106937   2.463441   3.069571   1.076600   1.831549
                    6
     6  H    0.000000
 Stoichiometry    C2H4
 Framework group  C2H[SGH(C2H4)]
 Deg. of freedom     5
 Full point group                 C2H     NOp   4
 Largest Abelian subgroup         C2H     NOp   4
 Largest concise Abelian subgroup C2      NOp   2
                         Standard orientation:                         
 ---------------------------------------------------------------------
 Center     Atomic      Atomic             Coordinates (Angstroms)
 Number     Number       Type             X           Y           Z
 ---------------------------------------------------------------------
      1          6           0        0.000000    0.666002    0.000000
      2          1           0       -0.915286    1.232170    0.000000
      3          1           0        0.916263    1.231271    0.000000
      4          6           0        0.000000   -0.666002    0.000000
      5          1           0        0.915286   -1.232170    0.000000
      6          1           0       -0.916263   -1.231271    0.000000
 ---------------------------------------------------------------------
 Rotational constants (GHZ):         149.4840610          30.1512836          25.0904761
 Standard basis: VSTO-6G (5D, 7F)
 There are     5 symmetry adapted cartesian basis functions of AG  symmetry.
 There are     1 symmetry adapted cartesian basis functions of BG  symmetry.
 There are     1 symmetry adapted cartesian basis functions of AU  symmetry.
 There are     5 symmetry adapted cartesian basis functions of BU  symmetry.
 There are     5 symmetry adapted basis functions of AG  symmetry.
 There are     1 symmetry adapted basis functions of BG  symmetry.
 There are     1 symmetry adapted basis functions of AU  symmetry.
 There are     5 symmetry adapted basis functions of BU  symmetry.
    12 basis functions,    72 primitive gaussians,    12 cartesian basis functions
     6 alpha electrons        6 beta electrons
       nuclear repulsion energy        27.5384888371 Hartrees.
 Integral buffers will be    131072 words long.
 Regular integral format.
 Two-electron integral symmetry is turned off.
 Do NDO integrals.
 One-electron integrals computed using PRISM.
 NBasis=    12 RedAO= T EigKep=  1.00D+00  NBF=     5     1     1     5
 NBsUse=    12 1.00D-06 EigRej= -1.00D+00 NBFU=     5     1     1     5
 Initial guess from the checkpoint file:  "C:\Users\al6323\OneDrive - Imperial College London\Desktop\TSR20251110\ethene_opt+freq.chk"
 B after Tr=     0.000000    0.000000    0.000000
         Rot=    1.000000    0.000000    0.000000   -0.000470 Ang=  -0.05 deg.
 Initial guess orbital symmetries:
       Occupied  (AG) (BU) (BU) (AG) (AG) (AU)
       Virtual   (BG) (BU) (BU) (BU) (AG) (AG)
 Keep J ints in memory in canonical form, NReq=859587.
 Overlap will be assumed to be unity.
 Requested convergence on RMS density matrix=1.00D-08 within 128 cycles.
 Requested convergence on MAX density matrix=1.00D-06.
 Requested convergence on             energy=1.00D-06.
 No special actions if energy rises.
 Fock symm off for IB=4 I1=    1 I=    8 J=    3 Cut=1.00D-07 Err=1.95D-03
 Fock matrix is not symmetric: symmetry in diagonalization turned off.
 SCF Done:  E(RPM6) =  0.256733743520E-01 A.U. after    9 cycles
            NFock=  8  Conv=0.15D-08     -V/T= 1.0015
 Calling FoFJK, ICntrl=      2127 FMM=F ISym2X=1 I1Cent= 0 IOpClX= 0 NMat=1 NMatS=1 NMatT=0.
 ***** Axes restored to original set *****
 -------------------------------------------------------------------
 Center     Atomic                   Forces (Hartrees/Bohr)
 Number     Number              X              Y              Z
 -------------------------------------------------------------------
      1        6           0.004188189    0.007723983    0.000000000
      2        1          -0.002355302   -0.004155136    0.000000000
      3        1          -0.002292331   -0.004172167    0.000000000
      4        6          -0.004188189   -0.007723983    0.000000000
      5        1           0.002355302    0.004155136    0.000000000
      6        1           0.002292331    0.004172167    0.000000000
 -------------------------------------------------------------------
 Cartesian Forces:  Max     0.007723983 RMS     0.003691961

 GradGradGradGradGradGradGradGradGradGradGradGradGradGradGradGradGradGrad
 Berny optimization.
 Using GEDIIS/GDIIS optimizer.
 FormGI is forming the generalized inverse of G from B-inverse, IUseBI=4.
 Internal  Forces:  Max     0.005523056 RMS     0.002789129
 Search for a local minimum.
 Step number   2 out of a maximum of   25
 All quantities printed in internal units (Hartrees-Bohrs-Radians)
 Mixed Optimization -- RFO/linear search
 Update second derivatives using D2CorX and points    1    2
 DE= -1.98D-03 DEPred=-1.46D-03 R= 1.35D+00
 TightC=F SS=  1.41D+00  RLast= 1.12D-01 DXNew= 5.0454D-01 3.3503D-01
 Trust test= 1.35D+00 RLast= 1.12D-01 DXMaxT set to 3.35D-01
 The second derivative matrix:
                          R1        R2        R3        R4        R5
           R1           0.36746
           R2          -0.00484   0.36751
           R3           0.01139   0.00842   0.66920
           R4          -0.00484  -0.00484   0.01139   0.36746
           R5          -0.00484  -0.00479   0.00842  -0.00484   0.36751
           A1           0.01026   0.01028  -0.02518   0.01026   0.01028
           A2          -0.00488  -0.00492   0.01377  -0.00488  -0.00492
           A3          -0.00538  -0.00536   0.01141  -0.00538  -0.00536
           A4          -0.00488  -0.00492   0.01377  -0.00488  -0.00492
           A5          -0.00538  -0.00536   0.01141  -0.00538  -0.00536
           A6           0.01026   0.01028  -0.02518   0.01026   0.01028
           D1           0.00000   0.00000   0.00000   0.00000   0.00000
           D2           0.00000   0.00000   0.00000   0.00000   0.00000
           D3           0.00000   0.00000   0.00000   0.00000   0.00000
           D4           0.00000   0.00000   0.00000   0.00000   0.00000
                          A1        A2        A3        A4        A5
           A1           0.13828
           A2           0.01031   0.15513
           A3           0.01141  -0.00544   0.15403
           A4           0.01031  -0.00487  -0.00544   0.15513
           A5           0.01141  -0.00544  -0.00597  -0.00544   0.15403
           A6          -0.02172   0.01031   0.01141   0.01031   0.01141
           D1           0.00000   0.00000   0.00000   0.00000   0.00000
           D2           0.00000   0.00000   0.00000   0.00000   0.00000
           D3           0.00000   0.00000   0.00000   0.00000   0.00000
           D4           0.00000   0.00000   0.00000   0.00000   0.00000
                          A6        D1        D2        D3        D4
           A6           0.13828
           D1           0.00000   0.02681
           D2           0.00000   0.00000   0.02681
           D3           0.00000   0.00000   0.00000   0.02681
           D4           0.00000   0.00000   0.00000   0.00000   0.02681
 ITU=  1  0
 Use linear search instead of GDIIS.
     Eigenvalues ---    0.02681   0.02681   0.02681   0.08638   0.16000
     Eigenvalues ---    0.16000   0.16006   0.35720   0.37230   0.37230
     Eigenvalues ---    0.37233   0.67345
 RFO step:  Lambda=-5.66294709D-04 EMin= 2.68137408D-02
 Quartic linear search produced a step of  0.52778.
 Iteration  1 RMS(Cart)=  0.03158225 RMS(Int)=  0.00052797
 Iteration  2 RMS(Cart)=  0.00053949 RMS(Int)=  0.00000008
 Iteration  3 RMS(Cart)=  0.00000010 RMS(Int)=  0.00000000
 ClnCor:  largest displacement from symmetrization is 2.63D-13 for atom     1.
 Variable       Old X    -DE/DX   Delta X   Delta X   Delta X     New X
                                 (Linear)    (Quad)   (Total)
    R1        2.03380   0.00254   0.00622   0.00636   0.01259   2.04639
    R2        2.03448   0.00242   0.00658   0.00561   0.01220   2.04667
    R3        2.51712   0.00075  -0.02313   0.01690  -0.00623   2.51089
    R4        2.03380   0.00254   0.00622   0.00636   0.01259   2.04639
    R5        2.03448   0.00242   0.00658   0.00561   0.01220   2.04667
    A1        2.03486  -0.00552  -0.03038  -0.03138  -0.06176   1.97310
    A2        2.12476   0.00270   0.01393   0.01598   0.02992   2.15467
    A3        2.12357   0.00282   0.01644   0.01540   0.03184   2.15541
    A4        2.12476   0.00270   0.01393   0.01598   0.02992   2.15467
    A5        2.12357   0.00282   0.01644   0.01540   0.03184   2.15541
    A6        2.03486  -0.00552  -0.03038  -0.03138  -0.06176   1.97310
    D1        3.14159   0.00000   0.00000   0.00000   0.00000   3.14159
    D2        0.00000   0.00000   0.00000   0.00000   0.00000   0.00000
    D3        0.00000   0.00000   0.00000   0.00000   0.00000   0.00000
    D4        3.14159   0.00000   0.00000   0.00000   0.00000   3.14159
         Item               Value     Threshold  Converged?
 Maximum Force            0.005523     0.000450     NO 
 RMS     Force            0.002789     0.000300     NO 
 Maximum Displacement     0.061160     0.001800     NO 
 RMS     Displacement     0.031687     0.001200     NO 
 Predicted change in Energy=-6.042070D-04
 GradGradGradGradGradGradGradGradGradGradGradGradGradGradGradGradGradGrad

                          Input orientation:                          
 ---------------------------------------------------------------------
 Center     Atomic      Atomic             Coordinates (Angstroms)
 Number     Number       Type             X           Y           Z
 ---------------------------------------------------------------------
      1          6           0       -2.636032   -0.365227    0.000000
      2          1           0       -2.152033   -1.333948    0.000000
      3          1           0       -3.717068   -0.431300    0.000000
      4          6           0       -1.971713    0.785487    0.000000
      5          1           0       -2.455712    1.754209    0.000000
      6          1           0       -0.890677    0.851561    0.000000
 ---------------------------------------------------------------------
                    Distance matrix (angstroms):
                    1          2          3          4          5
     1  C    0.000000
     2  H    1.082902   0.000000
     3  H    1.083053   1.806684   0.000000
     4  C    1.328707   2.127092   2.127636   0.000000
     5  H    2.127092   3.103052   2.523384   1.082902   0.000000
     6  H    2.127636   2.523384   3.103903   1.083053   1.806684
                    6
     6  H    0.000000
 Stoichiometry    C2H4
 Framework group  C2H[SGH(C2H4)]
 Deg. of freedom     5
 Full point group                 C2H     NOp   4
 Largest Abelian subgroup         C2H     NOp   4
 Largest concise Abelian subgroup C2      NOp   2
                         Standard orientation:                         
 ---------------------------------------------------------------------
 Center     Atomic      Atomic             Coordinates (Angstroms)
 Number     Number       Type             X           Y           Z
 ---------------------------------------------------------------------
      1          6           0        0.000000    0.664354    0.000000
      2          1           0       -0.903498    1.261318    0.000000
      3          1           0        0.903186    1.262066    0.000000
      4          6           0        0.000000   -0.664354    0.000000
      5          1           0        0.903498   -1.261318    0.000000
      6          1           0       -0.903186   -1.262066    0.000000
 ---------------------------------------------------------------------
 Rotational constants (GHZ):         153.6270480          29.7105795          24.8958639
 Standard basis: VSTO-6G (5D, 7F)
 There are     5 symmetry adapted cartesian basis functions of AG  symmetry.
 There are     1 symmetry adapted cartesian basis functions of BG  symmetry.
 There are     1 symmetry adapted cartesian basis functions of AU  symmetry.
 There are     5 symmetry adapted cartesian basis functions of BU  symmetry.
 There are     5 symmetry adapted basis functions of AG  symmetry.
 There are     1 symmetry adapted basis functions of BG  symmetry.
 There are     1 symmetry adapted basis functions of AU  symmetry.
 There are     5 symmetry adapted basis functions of BU  symmetry.
    12 basis functions,    72 primitive gaussians,    12 cartesian basis functions
     6 alpha electrons        6 beta electrons
       nuclear repulsion energy        27.4825349904 Hartrees.
 Integral buffers will be    131072 words long.
 Regular integral format.
 Two-electron integral symmetry is turned off.
 Do NDO integrals.
 One-electron integrals computed using PRISM.
 NBasis=    12 RedAO= T EigKep=  1.00D+00  NBF=     5     1     1     5
 NBsUse=    12 1.00D-06 EigRej= -1.00D+00 NBFU=     5     1     1     5
 Initial guess from the checkpoint file:  "C:\Users\al6323\OneDrive - Imperial College London\Desktop\TSR20251110\ethene_opt+freq.chk"
 B after Tr=     0.000000    0.000000    0.000000
         Rot=    1.000000    0.000000    0.000000   -0.000210 Ang=  -0.02 deg.
 Initial guess orbital symmetries:
       Occupied  (AG) (BU) (BU) (AG) (AG) (AU)
       Virtual   (BG) (BU) (BU) (BU) (AG) (AG)
 Keep J ints in memory in canonical form, NReq=859587.
 Overlap will be assumed to be unity.
 Requested convergence on RMS density matrix=1.00D-08 within 128 cycles.
 Requested convergence on MAX density matrix=1.00D-06.
 Requested convergence on             energy=1.00D-06.
 No special actions if energy rises.
 Fock symm off for IB=4 I1=    1 I=    8 J=    3 Cut=1.00D-07 Err=1.37D-03
 Fock matrix is not symmetric: symmetry in diagonalization turned off.
 SCF Done:  E(RPM6) =  0.251180311290E-01 A.U. after    9 cycles
            NFock=  8  Conv=0.51D-09     -V/T= 1.0014
 Calling FoFJK, ICntrl=      2127 FMM=F ISym2X=1 I1Cent= 0 IOpClX= 0 NMat=1 NMatS=1 NMatT=0.
 ***** Axes restored to original set *****
 -------------------------------------------------------------------
 Center     Atomic                   Forces (Hartrees/Bohr)
 Number     Number              X              Y              Z
 -------------------------------------------------------------------
      1        6           0.000696876    0.001164510    0.000000000
      2        1          -0.000337530    0.000651009    0.000000000
      3        1           0.000834347    0.000089868    0.000000000
      4        6          -0.000696876   -0.001164510    0.000000000
      5        1           0.000337530   -0.000651009    0.000000000
      6        1          -0.000834347   -0.000089868    0.000000000
 -------------------------------------------------------------------
 Cartesian Forces:  Max     0.001164510 RMS     0.000585346

 GradGradGradGradGradGradGradGradGradGradGradGradGradGradGradGradGradGrad
 Berny optimization.
 Using GEDIIS/GDIIS optimizer.
 FormGI is forming the generalized inverse of G from B-inverse, IUseBI=4.
 Internal  Forces:  Max     0.002246958 RMS     0.000709034
 Search for a local minimum.
 Step number   3 out of a maximum of   25
 All quantities printed in internal units (Hartrees-Bohrs-Radians)
 Mixed Optimization -- En-DIIS/RFO-DIIS
 Update second derivatives using D2CorX and points    1    2    3
 DE= -5.55D-04 DEPred=-6.04D-04 R= 9.19D-01
 TightC=F SS=  1.41D+00  RLast= 1.10D-01 DXNew= 5.6346D-01 3.2998D-01
 Trust test= 9.19D-01 RLast= 1.10D-01 DXMaxT set to 3.35D-01
 The second derivative matrix:
                          R1        R2        R3        R4        R5
           R1           0.37086
           R2          -0.00115   0.37151
           R3           0.01447   0.01122   0.65377
           R4          -0.00144  -0.00115   0.01447   0.37086
           R5          -0.00115  -0.00079   0.01122  -0.00115   0.37151
           A1           0.00678   0.00631  -0.03475   0.00678   0.00631
           A2          -0.00337  -0.00318   0.01847  -0.00337  -0.00318
           A3          -0.00341  -0.00312   0.01628  -0.00341  -0.00312
           A4          -0.00337  -0.00318   0.01847  -0.00337  -0.00318
           A5          -0.00341  -0.00312   0.01628  -0.00341  -0.00312
           A6           0.00678   0.00631  -0.03475   0.00678   0.00631
           D1           0.00000   0.00000   0.00000   0.00000   0.00000
           D2           0.00000   0.00000   0.00000   0.00000   0.00000
           D3           0.00000   0.00000   0.00000   0.00000   0.00000
           D4           0.00000   0.00000   0.00000   0.00000   0.00000
                          A1        A2        A3        A4        A5
           A1           0.13951
           A2           0.00998   0.15516
           A3           0.01051  -0.00515   0.15463
           A4           0.00998  -0.00484  -0.00515   0.15516
           A5           0.01051  -0.00515  -0.00537  -0.00515   0.15463
           A6          -0.02049   0.00998   0.01051   0.00998   0.01051
           D1           0.00000   0.00000   0.00000   0.00000   0.00000
           D2           0.00000   0.00000   0.00000   0.00000   0.00000
           D3           0.00000   0.00000   0.00000   0.00000   0.00000
           D4           0.00000   0.00000   0.00000   0.00000   0.00000
                          A6        D1        D2        D3        D4
           A6           0.13951
           D1           0.00000   0.02681
           D2           0.00000   0.00000   0.02681
           D3           0.00000   0.00000   0.00000   0.02681
           D4           0.00000   0.00000   0.00000   0.00000   0.02681
 ITU=  1  1  0
 Use linear search instead of GDIIS.
     Eigenvalues ---    0.02681   0.02681   0.02681   0.08975   0.16000
     Eigenvalues ---    0.16000   0.16008   0.36811   0.37230   0.37230
     Eigenvalues ---    0.37248   0.66209
 RFO step:  Lambda=-1.31785046D-05 EMin= 2.68137408D-02
 Quartic linear search produced a step of -0.02460.
 Iteration  1 RMS(Cart)=  0.00171289 RMS(Int)=  0.00000028
 Iteration  2 RMS(Cart)=  0.00000032 RMS(Int)=  0.00000000
 ClnCor:  largest displacement from symmetrization is 8.43D-14 for atom     1.
 Variable       Old X    -DE/DX   Delta X   Delta X   Delta X     New X
                                 (Linear)    (Quad)   (Total)
    R1        2.04639  -0.00073  -0.00031  -0.00153  -0.00184   2.04455
    R2        2.04667  -0.00084  -0.00030  -0.00185  -0.00215   2.04453
    R3        2.51089  -0.00225   0.00015  -0.00351  -0.00336   2.50754
    R4        2.04639  -0.00073  -0.00031  -0.00153  -0.00184   2.04455
    R5        2.04667  -0.00084  -0.00030  -0.00185  -0.00215   2.04453
    A1        1.97310   0.00002   0.00152  -0.00197  -0.00045   1.97265
    A2        2.15467   0.00004  -0.00074   0.00130   0.00056   2.15524
    A3        2.15541  -0.00006  -0.00078   0.00067  -0.00011   2.15530
    A4        2.15467   0.00004  -0.00074   0.00130   0.00056   2.15524
    A5        2.15541  -0.00006  -0.00078   0.00067  -0.00011   2.15530
    A6        1.97310   0.00002   0.00152  -0.00197  -0.00045   1.97265
    D1        3.14159   0.00000   0.00000   0.00000   0.00000   3.14159
    D2        0.00000   0.00000   0.00000   0.00000   0.00000   0.00000
    D3        0.00000   0.00000   0.00000   0.00000   0.00000   0.00000
    D4        3.14159   0.00000   0.00000   0.00000   0.00000   3.14159
         Item               Value     Threshold  Converged?
 Maximum Force            0.002247     0.000450     NO 
 RMS     Force            0.000709     0.000300     NO 
 Maximum Displacement     0.003193     0.001800     NO 
 RMS     Displacement     0.001713     0.001200     NO 
 Predicted change in Energy=-6.943440D-06
 GradGradGradGradGradGradGradGradGradGradGradGradGradGradGradGradGradGrad

                          Input orientation:                          
 ---------------------------------------------------------------------
 Center     Atomic      Atomic             Coordinates (Angstroms)
 Number     Number       Type             X           Y           Z
 ---------------------------------------------------------------------
      1          6           0       -2.635481   -0.364519    0.000000
      2          1           0       -2.152284   -1.332551    0.000000
      3          1           0       -3.715378   -0.430600    0.000000
      4          6           0       -1.972263    0.784780    0.000000
      5          1           0       -2.455460    1.752812    0.000000
      6          1           0       -0.892367    0.850861    0.000000
 ---------------------------------------------------------------------
                    Distance matrix (angstroms):
                    1          2          3          4          5
     1  C    0.000000
     2  H    1.081927   0.000000
     3  H    1.081916   1.804654   0.000000
     4  C    1.326932   2.124970   2.124994   0.000000
     5  H    2.124970   3.100223   2.520849   1.081927   0.000000
     6  H    2.124994   2.520849   3.100248   1.081916   1.804654
                    6
     6  H    0.000000
 Stoichiometry    C2H4
 Framework group  C2H[SGH(C2H4)]
 Deg. of freedom     5
 Full point group                 C2H     NOp   4
 Largest Abelian subgroup         C2H     NOp   4
 Largest concise Abelian subgroup C2      NOp   2
                         Standard orientation:                         
 ---------------------------------------------------------------------
 Center     Atomic      Atomic             Coordinates (Angstroms)
 Number     Number       Type             X           Y           Z
 ---------------------------------------------------------------------
      1          6           0        0.000000    0.663466    0.000000
      2          1           0       -0.902349    1.260402    0.000000
      3          1           0        0.902306    1.260448    0.000000
      4          6           0        0.000000   -0.663466    0.000000
      5          1           0        0.902349   -1.260402    0.000000
      6          1           0       -0.902306   -1.260448    0.000000
 ---------------------------------------------------------------------
 Rotational constants (GHZ):         153.9728014          29.7826785          24.9555684
 Standard basis: VSTO-6G (5D, 7F)
 There are     5 symmetry adapted cartesian basis functions of AG  symmetry.
 There are     1 symmetry adapted cartesian basis functions of BG  symmetry.
 There are     1 symmetry adapted cartesian basis functions of AU  symmetry.
 There are     5 symmetry adapted cartesian basis functions of BU  symmetry.
 There are     5 symmetry adapted basis functions of AG  symmetry.
 There are     1 symmetry adapted basis functions of BG  symmetry.
 There are     1 symmetry adapted basis functions of AU  symmetry.
 There are     5 symmetry adapted basis functions of BU  symmetry.
    12 basis functions,    72 primitive gaussians,    12 cartesian basis functions
     6 alpha electrons        6 beta electrons
       nuclear repulsion energy        27.4976687173 Hartrees.
 Integral buffers will be    131072 words long.
 Regular integral format.
 Two-electron integral symmetry is turned off.
 Do NDO integrals.
 One-electron integrals computed using PRISM.
 NBasis=    12 RedAO= T EigKep=  1.00D+00  NBF=     5     1     1     5
 NBsUse=    12 1.00D-06 EigRej= -1.00D+00 NBFU=     5     1     1     5
 Initial guess from the checkpoint file:  "C:\Users\al6323\OneDrive - Imperial College London\Desktop\TSR20251110\ethene_opt+freq.chk"
 B after Tr=     0.000000    0.000000    0.000000
         Rot=    1.000000    0.000000    0.000000    0.000065 Ang=   0.01 deg.
 Initial guess orbital symmetries:
       Occupied  (AG) (BU) (BU) (AG) (AG) (AU)
       Virtual   (BG) (BU) (BU) (BU) (AG) (AG)
 Keep J ints in memory in canonical form, NReq=859587.
 Overlap will be assumed to be unity.
 Requested convergence on RMS density matrix=1.00D-08 within 128 cycles.
 Requested convergence on MAX density matrix=1.00D-06.
 Requested convergence on             energy=1.00D-06.
 No special actions if energy rises.
 Fock symm off for IB=4 I1=    1 I=    8 J=    3 Cut=1.00D-07 Err=7.79D-05
 Fock matrix is not symmetric: symmetry in diagonalization turned off.
 SCF Done:  E(RPM6) =  0.251116142140E-01 A.U. after    7 cycles
            NFock=  6  Conv=0.38D-08     -V/T= 1.0014
 Calling FoFJK, ICntrl=      2127 FMM=F ISym2X=1 I1Cent= 0 IOpClX= 0 NMat=1 NMatS=1 NMatT=0.
 ***** Axes restored to original set *****
 -------------------------------------------------------------------
 Center     Atomic                   Forces (Hartrees/Bohr)
 Number     Number              X              Y              Z
 -------------------------------------------------------------------
      1        6          -0.000322704   -0.000576927    0.000000000
      2        1          -0.000079267    0.000082961    0.000000000
      3        1           0.000108615   -0.000024260    0.000000000
      4        6           0.000322704    0.000576927    0.000000000
      5        1           0.000079267   -0.000082961    0.000000000
      6        1          -0.000108615    0.000024260    0.000000000
 -------------------------------------------------------------------
 Cartesian Forces:  Max     0.000576927 RMS     0.000226699

 GradGradGradGradGradGradGradGradGradGradGradGradGradGradGradGradGradGrad
 Berny optimization.
 Using GEDIIS/GDIIS optimizer.
 FormGI is forming the generalized inverse of G from B-inverse, IUseBI=4.
 Internal  Forces:  Max     0.000595476 RMS     0.000164797
 Search for a local minimum.
 Step number   4 out of a maximum of   25
 All quantities printed in internal units (Hartrees-Bohrs-Radians)
 Mixed Optimization -- En-DIIS/RFO-DIIS
 Swapping is turned off.
 Update second derivatives using D2CorX and points    1    2    3    4
 DE= -6.42D-06 DEPred=-6.94D-06 R= 9.24D-01
 TightC=F SS=  1.41D+00  RLast= 5.32D-03 DXNew= 5.6346D-01 1.5972D-02
 Trust test= 9.24D-01 RLast= 5.32D-03 DXMaxT set to 3.35D-01
 The second derivative matrix:
                          R1        R2        R3        R4        R5
           R1           0.35900
           R2          -0.01405   0.35753
           R3           0.01248   0.01271   0.83403
           R4          -0.01330  -0.01405   0.01248   0.35900
           R5          -0.01405  -0.01477   0.01271  -0.01405   0.35753
           A1           0.00453   0.00371  -0.04167   0.00453   0.00371
           A2          -0.00158  -0.00118   0.02114  -0.00158  -0.00118
           A3          -0.00295  -0.00253   0.02053  -0.00295  -0.00253
           A4          -0.00158  -0.00118   0.02114  -0.00158  -0.00118
           A5          -0.00295  -0.00253   0.02053  -0.00295  -0.00253
           A6           0.00453   0.00371  -0.04167   0.00453   0.00371
           D1           0.00000   0.00000   0.00000   0.00000   0.00000
           D2           0.00000   0.00000   0.00000   0.00000   0.00000
           D3           0.00000   0.00000   0.00000   0.00000   0.00000
           D4           0.00000   0.00000   0.00000   0.00000   0.00000
                          A1        A2        A3        A4        A5
           A1           0.13928
           A2           0.01026   0.15491
           A3           0.01046  -0.00517   0.15471
           A4           0.01026  -0.00509  -0.00517   0.15491
           A5           0.01046  -0.00517  -0.00529  -0.00517   0.15471
           A6          -0.02072   0.01026   0.01046   0.01026   0.01046
           D1           0.00000   0.00000   0.00000   0.00000   0.00000
           D2           0.00000   0.00000   0.00000   0.00000   0.00000
           D3           0.00000   0.00000   0.00000   0.00000   0.00000
           D4           0.00000   0.00000   0.00000   0.00000   0.00000
                          A6        D1        D2        D3        D4
           A6           0.13928
           D1           0.00000   0.02681
           D2           0.00000   0.00000   0.02681
           D3           0.00000   0.00000   0.00000   0.02681
           D4           0.00000   0.00000   0.00000   0.00000   0.02681
 ITU=  1  1  1  0
     Eigenvalues ---    0.02681   0.02681   0.02681   0.08961   0.15991
     Eigenvalues ---    0.16000   0.16000   0.31628   0.37230   0.37230
     Eigenvalues ---    0.37239   0.84210
 En-DIIS/RFO-DIIS/Sim-DIIS IScMMF=       -3 using points:     4    3
 RFO step:  Lambda=-6.01729129D-07.
 DidBck=F Rises=F RFO-DIIS coefs:    1.02296   -0.02296
 Iteration  1 RMS(Cart)=  0.00025399 RMS(Int)=  0.00000001
 Iteration  2 RMS(Cart)=  0.00000001 RMS(Int)=  0.00000000
 ClnCor:  largest displacement from symmetrization is 4.29D-14 for atom     4.
 Variable       Old X    -DE/DX   Delta X   Delta X   Delta X     New X
                                 (Linear)    (Quad)   (Total)
    R1        2.04455  -0.00011  -0.00004  -0.00033  -0.00037   2.04418
    R2        2.04453  -0.00011  -0.00005  -0.00032  -0.00037   2.04416
    R3        2.50754   0.00060  -0.00008   0.00080   0.00072   2.50826
    R4        2.04455  -0.00011  -0.00004  -0.00033  -0.00037   2.04418
    R5        2.04453  -0.00011  -0.00005  -0.00032  -0.00037   2.04416
    A1        1.97265  -0.00004  -0.00001  -0.00007  -0.00008   1.97257
    A2        2.15524   0.00003   0.00001   0.00005   0.00006   2.15530
    A3        2.15530   0.00002   0.00000   0.00002   0.00002   2.15531
    A4        2.15524   0.00003   0.00001   0.00005   0.00006   2.15530
    A5        2.15530   0.00002   0.00000   0.00002   0.00002   2.15531
    A6        1.97265  -0.00004  -0.00001  -0.00007  -0.00008   1.97257
    D1        3.14159   0.00000   0.00000   0.00000   0.00000   3.14159
    D2        0.00000   0.00000   0.00000   0.00000   0.00000   0.00000
    D3        0.00000   0.00000   0.00000   0.00000   0.00000   0.00000
    D4        3.14159   0.00000   0.00000   0.00000   0.00000   3.14159
         Item               Value     Threshold  Converged?
 Maximum Force            0.000595     0.000450     NO 
 RMS     Force            0.000165     0.000300     YES
 Maximum Displacement     0.000421     0.001800     YES
 RMS     Displacement     0.000254     0.001200     YES
 Predicted change in Energy=-3.008649D-07
 GradGradGradGradGradGradGradGradGradGradGradGradGradGradGradGradGradGrad

                          Input orientation:                          
 ---------------------------------------------------------------------
 Center     Atomic      Atomic             Coordinates (Angstroms)
 Number     Number       Type             X           Y           Z
 ---------------------------------------------------------------------
      1          6           0       -2.635569   -0.364690    0.000000
      2          1           0       -2.152507   -1.332571    0.000000
      3          1           0       -3.715269   -0.430792    0.000000
      4          6           0       -1.972176    0.784951    0.000000
      5          1           0       -2.455237    1.752831    0.000000
      6          1           0       -0.892475    0.851053    0.000000
 ---------------------------------------------------------------------
                    Distance matrix (angstroms):
                    1          2          3          4          5
     1  C    0.000000
     2  H    1.081731   0.000000
     3  H    1.081722   1.804281   0.000000
     4  C    1.327315   2.125186   2.125184   0.000000
     5  H    2.125186   3.100218   2.521090   1.081731   0.000000
     6  H    2.125184   2.521090   3.100209   1.081722   1.804281
                    6
     6  H    0.000000
 Stoichiometry    C2H4
 Framework group  C2H[SGH(C2H4)]
 Deg. of freedom     5
 Full point group                 C2H     NOp   4
 Largest Abelian subgroup         C2H     NOp   4
 Largest concise Abelian subgroup C2      NOp   2
                         Standard orientation:                         
 ---------------------------------------------------------------------
 Center     Atomic      Atomic             Coordinates (Angstroms)
 Number     Number       Type             X           Y           Z
 ---------------------------------------------------------------------
      1          6           0        0.000000    0.663657    0.000000
      2          1           0       -0.902147    1.260543    0.000000
      3          1           0        0.902134    1.260547    0.000000
      4          6           0        0.000000   -0.663657    0.000000
      5          1           0        0.902147   -1.260543    0.000000
      6          1           0       -0.902134   -1.260547    0.000000
 ---------------------------------------------------------------------
 Rotational constants (GHZ):         154.0364894          29.7698281          24.9482166
 Standard basis: VSTO-6G (5D, 7F)
 There are     5 symmetry adapted cartesian basis functions of AG  symmetry.
 There are     1 symmetry adapted cartesian basis functions of BG  symmetry.
 There are     1 symmetry adapted cartesian basis functions of AU  symmetry.
 There are     5 symmetry adapted cartesian basis functions of BU  symmetry.
 There are     5 symmetry adapted basis functions of AG  symmetry.
 There are     1 symmetry adapted basis functions of BG  symmetry.
 There are     1 symmetry adapted basis functions of AU  symmetry.
 There are     5 symmetry adapted basis functions of BU  symmetry.
    12 basis functions,    72 primitive gaussians,    12 cartesian basis functions
     6 alpha electrons        6 beta electrons
       nuclear repulsion energy        27.4971373694 Hartrees.
 Integral buffers will be    131072 words long.
 Regular integral format.
 Two-electron integral symmetry is turned off.
 Do NDO integrals.
 One-electron integrals computed using PRISM.
 NBasis=    12 RedAO= T EigKep=  1.00D+00  NBF=     5     1     1     5
 NBsUse=    12 1.00D-06 EigRej= -1.00D+00 NBFU=     5     1     1     5
 Initial guess from the checkpoint file:  "C:\Users\al6323\OneDrive - Imperial College London\Desktop\TSR20251110\ethene_opt+freq.chk"
 B after Tr=     0.000000    0.000000    0.000000
         Rot=    1.000000    0.000000    0.000000    0.000005 Ang=   0.00 deg.
 Initial guess orbital symmetries:
       Occupied  (AG) (BU) (BU) (AG) (AG) (AU)
       Virtual   (BG) (BU) (BU) (BU) (AG) (AG)
 Keep J ints in memory in canonical form, NReq=859587.
 Overlap will be assumed to be unity.
 Requested convergence on RMS density matrix=1.00D-08 within 128 cycles.
 Requested convergence on MAX density matrix=1.00D-06.
 Requested convergence on             energy=1.00D-06.
 No special actions if energy rises.
 Fock symm off for IB=4 I1=    1 I=    8 J=    3 Cut=1.00D-07 Err=1.21D-05
 Fock matrix is not symmetric: symmetry in diagonalization turned off.
 SCF Done:  E(RPM6) =  0.251112706057E-01 A.U. after    6 cycles
            NFock=  5  Conv=0.81D-08     -V/T= 1.0014
 Calling FoFJK, ICntrl=      2127 FMM=F ISym2X=1 I1Cent= 0 IOpClX= 0 NMat=1 NMatS=1 NMatT=0.
 ***** Axes restored to original set *****
 -------------------------------------------------------------------
 Center     Atomic                   Forces (Hartrees/Bohr)
 Number     Number              X              Y              Z
 -------------------------------------------------------------------
      1        6          -0.000035088   -0.000068239    0.000000000
      2        1          -0.000019836    0.000020567    0.000000000
      3        1           0.000023842   -0.000006902    0.000000000
      4        6           0.000035088    0.000068239    0.000000000
      5        1           0.000019836   -0.000020567    0.000000000
      6        1          -0.000023842    0.000006902    0.000000000
 -------------------------------------------------------------------
 Cartesian Forces:  Max     0.000068239 RMS     0.000028519

 GradGradGradGradGradGradGradGradGradGradGradGradGradGradGradGradGradGrad
 Berny optimization.
 Using GEDIIS/GDIIS optimizer.
 FormGI is forming the generalized inverse of G from B-inverse, IUseBI=4.
 Internal  Forces:  Max     0.000062804 RMS     0.000021482
 Search for a local minimum.
 Step number   5 out of a maximum of   25
 All quantities printed in internal units (Hartrees-Bohrs-Radians)
 Mixed Optimization -- En-DIIS/RFO-DIIS
 Swapping is turned off.
 Update second derivatives using D2CorX and points    1    2    3    5
 DE= -3.44D-07 DEPred=-3.01D-07 R= 1.14D+00
 Trust test= 1.14D+00 RLast= 1.04D-03 DXMaxT set to 3.35D-01
 The second derivative matrix:
                          R1        R2        R3        R4        R5
           R1           0.35567
           R2          -0.01752   0.35399
           R3           0.01532   0.01747   0.84276
           R4          -0.01663  -0.01752   0.01532   0.35567
           R5          -0.01752  -0.01831   0.01747  -0.01752   0.35399
           A1           0.00308   0.00213  -0.04018   0.00308   0.00213
           A2          -0.00067  -0.00021   0.01977  -0.00067  -0.00021
           A3          -0.00241  -0.00192   0.02041  -0.00241  -0.00192
           A4          -0.00067  -0.00021   0.01977  -0.00067  -0.00021
           A5          -0.00241  -0.00192   0.02041  -0.00241  -0.00192
           A6           0.00308   0.00213  -0.04018   0.00308   0.00213
           D1           0.00000   0.00000   0.00000   0.00000   0.00000
           D2           0.00000   0.00000   0.00000   0.00000   0.00000
           D3           0.00000   0.00000   0.00000   0.00000   0.00000
           D4           0.00000   0.00000   0.00000   0.00000   0.00000
                          A1        A2        A3        A4        A5
           A1           0.13868
           A2           0.01065   0.15466
           A3           0.01067  -0.00531   0.15464
           A4           0.01065  -0.00534  -0.00531   0.15466
           A5           0.01067  -0.00531  -0.00536  -0.00531   0.15464
           A6          -0.02132   0.01065   0.01067   0.01065   0.01067
           D1           0.00000   0.00000   0.00000   0.00000   0.00000
           D2           0.00000   0.00000   0.00000   0.00000   0.00000
           D3           0.00000   0.00000   0.00000   0.00000   0.00000
           D4           0.00000   0.00000   0.00000   0.00000   0.00000
                          A6        D1        D2        D3        D4
           A6           0.13868
           D1           0.00000   0.02681
           D2           0.00000   0.00000   0.02681
           D3           0.00000   0.00000   0.00000   0.02681
           D4           0.00000   0.00000   0.00000   0.00000   0.02681
 ITU=  0  1  1  1  0
     Eigenvalues ---    0.02681   0.02681   0.02681   0.08893   0.15984
     Eigenvalues ---    0.16000   0.16000   0.30119   0.37230   0.37230
     Eigenvalues ---    0.37245   0.85105
 En-DIIS/RFO-DIIS/Sim-DIIS IScMMF=       -3 using points:     5    4    3
 RFO step:  Lambda=-1.47493934D-08.
 DidBck=F Rises=F RFO-DIIS coefs:    1.18546   -0.16796   -0.01750
 Iteration  1 RMS(Cart)=  0.00007642 RMS(Int)=  0.00000000
 Iteration  2 RMS(Cart)=  0.00000000 RMS(Int)=  0.00000000
 ClnCor:  largest displacement from symmetrization is 1.24D-13 for atom     1.
 Variable       Old X    -DE/DX   Delta X   Delta X   Delta X     New X
                                 (Linear)    (Quad)   (Total)
    R1        2.04418  -0.00003  -0.00010   0.00000  -0.00010   2.04407
    R2        2.04416  -0.00002  -0.00011   0.00002  -0.00009   2.04407
    R3        2.50826   0.00006   0.00008   0.00001   0.00008   2.50834
    R4        2.04418  -0.00003  -0.00010   0.00000  -0.00010   2.04407
    R5        2.04416  -0.00002  -0.00011   0.00002  -0.00009   2.04407
    A1        1.97257  -0.00001  -0.00002  -0.00007  -0.00009   1.97248
    A2        2.15530   0.00001   0.00002   0.00003   0.00005   2.15535
    A3        2.15531   0.00001   0.00000   0.00004   0.00004   2.15535
    A4        2.15530   0.00001   0.00002   0.00003   0.00005   2.15535
    A5        2.15531   0.00001   0.00000   0.00004   0.00004   2.15535
    A6        1.97257  -0.00001  -0.00002  -0.00007  -0.00009   1.97248
    D1        3.14159   0.00000   0.00000   0.00000   0.00000   3.14159
    D2        0.00000   0.00000   0.00000   0.00000   0.00000   0.00000
    D3        0.00000   0.00000   0.00000   0.00000   0.00000   0.00000
    D4        3.14159   0.00000   0.00000   0.00000   0.00000   3.14159
         Item               Value     Threshold  Converged?
 Maximum Force            0.000063     0.000450     YES
 RMS     Force            0.000021     0.000300     YES
 Maximum Displacement     0.000146     0.001800     YES
 RMS     Displacement     0.000076     0.001200     YES
 Predicted change in Energy=-7.796465D-09
 Optimization completed.
    -- Stationary point found.
                           ----------------------------
                           !   Optimized Parameters   !
                           ! (Angstroms and Degrees)  !
 --------------------------                            --------------------------
 ! Name  Definition              Value          Derivative Info.                !
 --------------------------------------------------------------------------------
 ! R1    R(1,2)                  1.0817         -DE/DX =    0.0                 !
 ! R2    R(1,3)                  1.0817         -DE/DX =    0.0                 !
 ! R3    R(1,4)                  1.3273         -DE/DX =    0.0001              !
 ! R4    R(4,5)                  1.0817         -DE/DX =    0.0                 !
 ! R5    R(4,6)                  1.0817         -DE/DX =    0.0                 !
 ! A1    A(2,1,3)              113.02           -DE/DX =    0.0                 !
 ! A2    A(2,1,4)              123.4897         -DE/DX =    0.0                 !
 ! A3    A(3,1,4)              123.4903         -DE/DX =    0.0                 !
 ! A4    A(1,4,5)              123.4897         -DE/DX =    0.0                 !
 ! A5    A(1,4,6)              123.4903         -DE/DX =    0.0                 !
 ! A6    A(5,4,6)              113.02           -DE/DX =    0.0                 !
 ! D1    D(2,1,4,5)            180.0            -DE/DX =    0.0                 !
 ! D2    D(2,1,4,6)              0.0            -DE/DX =    0.0                 !
 ! D3    D(3,1,4,5)              0.0            -DE/DX =    0.0                 !
 ! D4    D(3,1,4,6)            180.0            -DE/DX =    0.0                 !
 --------------------------------------------------------------------------------
 GradGradGradGradGradGradGradGradGradGradGradGradGradGradGradGradGradGrad

                          Input orientation:                          
 ---------------------------------------------------------------------
 Center     Atomic      Atomic             Coordinates (Angstroms)
 Number     Number       Type             X           Y           Z
 ---------------------------------------------------------------------
      1          6           0       -2.635569   -0.364690    0.000000
      2          1           0       -2.152507   -1.332571    0.000000
      3          1           0       -3.715269   -0.430792    0.000000
      4          6           0       -1.972176    0.784951    0.000000
      5          1           0       -2.455237    1.752831    0.000000
      6          1           0       -0.892475    0.851053    0.000000
 ---------------------------------------------------------------------
                    Distance matrix (angstroms):
                    1          2          3          4          5
     1  C    0.000000
     2  H    1.081731   0.000000
     3  H    1.081722   1.804281   0.000000
     4  C    1.327315   2.125186   2.125184   0.000000
     5  H    2.125186   3.100218   2.521090   1.081731   0.000000
     6  H    2.125184   2.521090   3.100209   1.081722   1.804281
                    6
     6  H    0.000000
 Stoichiometry    C2H4
 Framework group  C2H[SGH(C2H4)]
 Deg. of freedom     5
 Full point group                 C2H     NOp   4
 Largest Abelian subgroup         C2H     NOp   4
 Largest concise Abelian subgroup C2      NOp   2
                         Standard orientation:                         
 ---------------------------------------------------------------------
 Center     Atomic      Atomic             Coordinates (Angstroms)
 Number     Number       Type             X           Y           Z
 ---------------------------------------------------------------------
      1          6           0        0.000000    0.663657    0.000000
      2          1           0       -0.902147    1.260543    0.000000
      3          1           0        0.902134    1.260547    0.000000
      4          6           0        0.000000   -0.663657    0.000000
      5          1           0        0.902147   -1.260543    0.000000
      6          1           0       -0.902134   -1.260547    0.000000
 ---------------------------------------------------------------------
 Rotational constants (GHZ):         154.0364894          29.7698281          24.9482166

 **********************************************************************

            Population analysis using the SCF Density.

 **********************************************************************

 Orbital symmetries:
       Occupied  (AG) (BU) (BU) (AG) (AG) (AU)
       Virtual   (BG) (BU) (BU) (BU) (AG) (AG)
 The electronic state is 1-AG.
 Alpha  occ. eigenvalues --   -0.98716  -0.75694  -0.58859  -0.53149  -0.44262
 Alpha  occ. eigenvalues --   -0.39228
 Alpha virt. eigenvalues --    0.04256   0.20067   0.21093   0.23162   0.23858
 Alpha virt. eigenvalues --    0.23909
          Condensed to atoms (all electrons):
               1          2          3          4          5          6
     1  C    4.286427   0.000000   0.000000   0.000000   0.000000   0.000000
     2  H    0.000000   0.856786   0.000000   0.000000   0.000000   0.000000
     3  H    0.000000   0.000000   0.856787   0.000000   0.000000   0.000000
     4  C    0.000000   0.000000   0.000000   4.286427   0.000000   0.000000
     5  H    0.000000   0.000000   0.000000   0.000000   0.856786   0.000000
     6  H    0.000000   0.000000   0.000000   0.000000   0.000000   0.856787
 Mulliken charges:
               1
     1  C   -0.286427
     2  H    0.143214
     3  H    0.143213
     4  C   -0.286427
     5  H    0.143214
     6  H    0.143213
 Sum of Mulliken charges =   0.00000
 Mulliken charges with hydrogens summed into heavy atoms:
               1
     1  C    0.000000
     4  C    0.000000
 Charge=              0.0000 electrons
 Dipole moment (field-independent basis, Debye):
    X=              0.0000    Y=              0.0000    Z=              0.0000  Tot=              0.0000
 N-N= 2.749713736936D+01 E-N=-3.019398407074D+01  KE=-1.735188593974D+01
 Symmetry AG   KE=-8.703564842283D+00
 Symmetry BG   KE= 0.000000000000D+00
 Symmetry AU   KE=-3.071614942574D+00
 Symmetry BU   KE=-5.576706154884D+00
 Unable to Open any file for archive entry.
 1|1|UNPC-SKCH-134-016|FOpt|RPM6|ZDO|C2H4|AL6323|10-Nov-2025|0||# opt f
 req pm6 geom=connectivity||ethene_opt+freq||0,1|C,-2.6355688996,-0.364
 6901944,0.|H,-2.1525070939,-1.332570915,0.|H,-3.7152694627,-0.43079244
 99,0.|C,-1.9721755804,0.7849505232,0.|H,-2.4552373861,1.7528312437,0.|
 H,-0.8924750173,0.8510527786,0.||Version=EM64W-G16RevC.01|State=1-AG|H
 F=0.0251113|RMSD=8.105e-009|RMSF=2.852e-005|Dipole=0.,0.,0.|PG=C02H [S
 GH(C2H4)]||@
 The archive entry for this job was punched.


 IF YOU'RE NOT PART OF THE SOLUTION,
 THEN YOU'RE PART OF THE PRECIPITATE.
 Job cpu time:       0 days  0 hours  0 minutes 15.0 seconds.
 Elapsed time:       0 days  0 hours  0 minutes 10.2 seconds.
 File lengths (MBytes):  RWF=      6 Int=      0 D2E=      0 Chk=      2 Scr=      1
 Normal termination of Gaussian 16 at Mon Nov 10 20:54:18 2025.
 Link1:  Proceeding to internal job step number  2.
 -------------------------------------------------------------
 #N Geom=AllCheck Guess=TCheck SCRF=Check GenChk RPM6/ZDO Freq
 -------------------------------------------------------------
 1/10=4,29=7,30=1,38=1,40=1/1,3;
 2/12=2,40=1/2;
 3/5=2,14=-4,25=1,41=3900000,70=2,71=2,116=1,135=40,140=1/1,2,3;
 4/5=101,35=1/1;
 5/5=2,35=1,38=6,98=1/2;
 8/6=4,10=90,11=11/1;
 11/6=1,8=1,9=11,15=111,16=1/1,2,10;
 10/6=1/2;
 6/7=2,8=2,9=2,10=2,28=1/1;
 7/8=1,10=1,25=1/1,2,3,16;
 1/10=4,30=1/3;
 99//99;
 Structure from the checkpoint file:  "C:\Users\al6323\OneDrive - Imperial College London\Desktop\TSR20251110\ethene_opt+freq.chk"
 ---------------
 ethene_opt+freq
 ---------------
 Charge =  0 Multiplicity = 1
 Redundant internal coordinates found in file.  (old form).
 C,0,-2.6355688996,-0.3646901944,0.
 H,0,-2.1525070939,-1.332570915,0.
 H,0,-3.7152694627,-0.4307924499,0.
 C,0,-1.9721755804,0.7849505232,0.
 H,0,-2.4552373861,1.7528312437,0.
 H,0,-0.8924750173,0.8510527786,0.
 Recover connectivity data from disk.

 GradGradGradGradGradGradGradGradGradGradGradGradGradGradGradGradGradGrad
 Berny optimization.
 Initialization pass.
                           ----------------------------
                           !    Initial Parameters    !
                           ! (Angstroms and Degrees)  !
 --------------------------                            --------------------------
 ! Name  Definition              Value          Derivative Info.                !
 --------------------------------------------------------------------------------
 ! R1    R(1,2)                  1.0817         calculate D2E/DX2 analytically  !
 ! R2    R(1,3)                  1.0817         calculate D2E/DX2 analytically  !
 ! R3    R(1,4)                  1.3273         calculate D2E/DX2 analytically  !
 ! R4    R(4,5)                  1.0817         calculate D2E/DX2 analytically  !
 ! R5    R(4,6)                  1.0817         calculate D2E/DX2 analytically  !
 ! A1    A(2,1,3)              113.02           calculate D2E/DX2 analytically  !
 ! A2    A(2,1,4)              123.4897         calculate D2E/DX2 analytically  !
 ! A3    A(3,1,4)              123.4903         calculate D2E/DX2 analytically  !
 ! A4    A(1,4,5)              123.4897         calculate D2E/DX2 analytically  !
 ! A5    A(1,4,6)              123.4903         calculate D2E/DX2 analytically  !
 ! A6    A(5,4,6)              113.02           calculate D2E/DX2 analytically  !
 ! D1    D(2,1,4,5)            180.0            calculate D2E/DX2 analytically  !
 ! D2    D(2,1,4,6)              0.0            calculate D2E/DX2 analytically  !
 ! D3    D(3,1,4,5)              0.0            calculate D2E/DX2 analytically  !
 ! D4    D(3,1,4,6)            180.0            calculate D2E/DX2 analytically  !
 --------------------------------------------------------------------------------
 Trust Radius=3.00D-01 FncErr=1.00D-07 GrdErr=1.00D-07 EigMax=2.50D+02 EigMin=1.00D-04
 Number of steps in this run=      2 maximum allowed number of steps=      2.
 GradGradGradGradGradGradGradGradGradGradGradGradGradGradGradGradGradGrad

                          Input orientation:                          
 ---------------------------------------------------------------------
 Center     Atomic      Atomic             Coordinates (Angstroms)
 Number     Number       Type             X           Y           Z
 ---------------------------------------------------------------------
      1          6           0       -2.635569   -0.364690    0.000000
      2          1           0       -2.152507   -1.332571    0.000000
      3          1           0       -3.715269   -0.430792    0.000000
      4          6           0       -1.972176    0.784951    0.000000
      5          1           0       -2.455237    1.752831    0.000000
      6          1           0       -0.892475    0.851053    0.000000
 ---------------------------------------------------------------------
                    Distance matrix (angstroms):
                    1          2          3          4          5
     1  C    0.000000
     2  H    1.081731   0.000000
     3  H    1.081722   1.804281   0.000000
     4  C    1.327315   2.125186   2.125184   0.000000
     5  H    2.125186   3.100218   2.521090   1.081731   0.000000
     6  H    2.125184   2.521090   3.100209   1.081722   1.804281
                    6
     6  H    0.000000
 Stoichiometry    C2H4
 Framework group  C2H[SGH(C2H4)]
 Deg. of freedom     5
 Full point group                 C2H     NOp   4
 Largest Abelian subgroup         C2H     NOp   4
 Largest concise Abelian subgroup C2      NOp   2
                         Standard orientation:                         
 ---------------------------------------------------------------------
 Center     Atomic      Atomic             Coordinates (Angstroms)
 Number     Number       Type             X           Y           Z
 ---------------------------------------------------------------------
      1          6           0        0.000000    0.663657    0.000000
      2          1           0       -0.902147    1.260543    0.000000
      3          1           0        0.902134    1.260547    0.000000
      4          6           0        0.000000   -0.663657    0.000000
      5          1           0        0.902147   -1.260543    0.000000
      6          1           0       -0.902134   -1.260547    0.000000
 ---------------------------------------------------------------------
 Rotational constants (GHZ):         154.0364894          29.7698281          24.9482166
 Standard basis: VSTO-6G (5D, 7F)
 There are     5 symmetry adapted cartesian basis functions of AG  symmetry.
 There are     1 symmetry adapted cartesian basis functions of BG  symmetry.
 There are     1 symmetry adapted cartesian basis functions of AU  symmetry.
 There are     5 symmetry adapted cartesian basis functions of BU  symmetry.
 There are     5 symmetry adapted basis functions of AG  symmetry.
 There are     1 symmetry adapted basis functions of BG  symmetry.
 There are     1 symmetry adapted basis functions of AU  symmetry.
 There are     5 symmetry adapted basis functions of BU  symmetry.
    12 basis functions,    72 primitive gaussians,    12 cartesian basis functions
     6 alpha electrons        6 beta electrons
       nuclear repulsion energy        27.4971373694 Hartrees.
 Integral buffers will be    131072 words long.
 Regular integral format.
 Two-electron integral symmetry is turned off.
 Do NDO integrals.
 One-electron integrals computed using PRISM.
 NBasis=    12 RedAO= T EigKep=  1.00D+00  NBF=     5     1     1     5
 NBsUse=    12 1.00D-06 EigRej= -1.00D+00 NBFU=     5     1     1     5
 Initial guess from the checkpoint file:  "C:\Users\al6323\OneDrive - Imperial College London\Desktop\TSR20251110\ethene_opt+freq.chk"
 B after Tr=     0.000000    0.000000    0.000000
         Rot=    1.000000    0.000000    0.000000    0.000000 Ang=   0.00 deg.
 Initial guess orbital symmetries:
       Occupied  (AG) (BU) (BU) (AG) (AG) (AU)
       Virtual   (BG) (BU) (BU) (BU) (AG) (AG)
 Keep J ints in memory in canonical form, NReq=859587.
 Overlap will be assumed to be unity.
 Requested convergence on RMS density matrix=1.00D-08 within 128 cycles.
 Requested convergence on MAX density matrix=1.00D-06.
 Requested convergence on             energy=1.00D-06.
 No special actions if energy rises.
 SCF Done:  E(RPM6) =  0.251112706057E-01 A.U. after    2 cycles
            NFock=  1  Conv=0.37D-09     -V/T= 1.0014
 Range of M.O.s used for correlation:     1    12
 NBasis=    12 NAE=     6 NBE=     6 NFC=     0 NFV=     0
 NROrb=     12 NOA=     6 NOB=     6 NVA=     6 NVB=     6
 Symmetrizing basis deriv contribution to polar:
 IMax=3 JMax=2 DiffMx= 0.00D+00
 G2DrvN: will do     7 centers at a time, making    1 passes.
 Calling FoFCou, ICntrl=  3107 FMM=F I1Cent=   0 AccDes= 0.00D+00.
 End of G2Drv F.D. properties file   721 does not exist.
 End of G2Drv F.D. properties file   722 does not exist.
 End of G2Drv F.D. properties file   788 does not exist.
          IDoAtm=111111
          Differentiating once with respect to electric field.
                with respect to dipole field.
          Differentiating once with respect to nuclear coordinates.
          Electric field/nuclear overlap derivatives assumed to be zero.
 Keep J ints in memory in canonical form, NReq=860358.
          There are    12 degrees of freedom in the 1st order CPHF.  IDoFFX=4 NUNeed=    12.
 LinEq1:  Iter=  0 NonCon=    12 RMS=5.41D-01 Max=2.88D+00 NDo=    12
 AX will form    12 AO Fock derivatives at one time.
 LinEq1:  Iter=  1 NonCon=    12 RMS=4.94D-02 Max=1.77D-01 NDo=    12
 LinEq1:  Iter=  2 NonCon=    11 RMS=8.33D-03 Max=2.84D-02 NDo=    12
 LinEq1:  Iter=  3 NonCon=    11 RMS=7.37D-04 Max=4.25D-03 NDo=    12
 LinEq1:  Iter=  4 NonCon=    11 RMS=4.47D-05 Max=2.00D-04 NDo=    12
 LinEq1:  Iter=  5 NonCon=    10 RMS=5.17D-06 Max=2.23D-05 NDo=    12
 LinEq1:  Iter=  6 NonCon=     6 RMS=1.86D-07 Max=9.51D-07 NDo=    12
 LinEq1:  Iter=  7 NonCon=     0 RMS=2.05D-09 Max=7.70D-09 NDo=     6
 Linear equations converged to 1.000D-08 1.000D-07 after     7 iterations.
 Isotropic polarizability for W=    0.000000       14.73 Bohr**3.
 End of Minotr F.D. properties file   721 does not exist.
 End of Minotr F.D. properties file   722 does not exist.
 End of Minotr F.D. properties file   788 does not exist.

 **********************************************************************

            Population analysis using the SCF Density.

 **********************************************************************

 Orbital symmetries:
       Occupied  (AG) (BU) (BU) (AG) (AG) (AU)
       Virtual   (BG) (BU) (BU) (BU) (AG) (AG)
 The electronic state is 1-AG.
 Alpha  occ. eigenvalues --   -0.98716  -0.75694  -0.58859  -0.53149  -0.44262
 Alpha  occ. eigenvalues --   -0.39228
 Alpha virt. eigenvalues --    0.04256   0.20067   0.21093   0.23162   0.23858
 Alpha virt. eigenvalues --    0.23909
          Condensed to atoms (all electrons):
               1          2          3          4          5          6
     1  C    4.286427   0.000000   0.000000   0.000000   0.000000   0.000000
     2  H    0.000000   0.856786   0.000000   0.000000   0.000000   0.000000
     3  H    0.000000   0.000000   0.856787   0.000000   0.000000   0.000000
     4  C    0.000000   0.000000   0.000000   4.286427   0.000000   0.000000
     5  H    0.000000   0.000000   0.000000   0.000000   0.856786   0.000000
     6  H    0.000000   0.000000   0.000000   0.000000   0.000000   0.856787
 Mulliken charges:
               1
     1  C   -0.286427
     2  H    0.143214
     3  H    0.143213
     4  C   -0.286427
     5  H    0.143214
     6  H    0.143213
 Sum of Mulliken charges =   0.00000
 Mulliken charges with hydrogens summed into heavy atoms:
               1
     1  C    0.000000
     4  C    0.000000
 APT charges:
               1
     1  C   -0.339235
     2  H    0.169617
     3  H    0.169617
     4  C   -0.339235
     5  H    0.169617
     6  H    0.169617
 Sum of APT charges =   0.00000
 APT charges with hydrogens summed into heavy atoms:
               1
     1  C    0.000000
     4  C    0.000000
 Charge=              0.0000 electrons
 Dipole moment (field-independent basis, Debye):
    X=              0.0000    Y=              0.0000    Z=              0.0000  Tot=              0.0000
 N-N= 2.749713736936D+01 E-N=-3.019398407190D+01  KE=-1.735188593877D+01
 Symmetry AG   KE=-8.703564841501D+00
 Symmetry BG   KE= 0.000000000000D+00
 Symmetry AU   KE=-3.071614942574D+00
 Symmetry BU   KE=-5.576706154696D+00
  Exact polarizability:      11.801       0.000      28.978       0.000       0.000       3.424
 Approx polarizability:       7.622       0.000      20.768       0.000       0.000       2.129
 Calling FoFJK, ICntrl=    100127 FMM=F ISym2X=1 I1Cent= 0 IOpClX= 0 NMat=1 NMatS=1 NMatT=0.
 Full mass-weighted force constant matrix:
 Low frequencies ---   -7.2551   -0.0004   -0.0001   -0.0001    4.1837   19.9514
 Low frequencies ---  837.8561  869.1301 1048.8699
 Diagonal vibrational polarizability:
        1.2557961       0.8706530       3.3578033
 Harmonic frequencies (cm**-1), IR intensities (KM/Mole), Raman scattering
 activities (A**4/AMU), depolarization ratios for plane and unpolarized
 incident light, reduced masses (AMU), force constants (mDyne/A),
 and normal coordinates:
                      1                      2                      3
                     BU                     AU                     BG
 Frequencies --    837.8561               869.1301              1048.8699
 Red. masses --      1.0540                 1.0078                 1.5402
 Frc consts  --      0.4359                 0.4485                 0.9983
 IR Inten    --     22.5205                 0.0000                 0.0000
  Atom  AN      X      Y      Z        X      Y      Z        X      Y      Z
     1   6     0.05   0.00   0.00     0.00   0.00   0.00     0.00   0.00   0.16
     2   1    -0.27  -0.42   0.00     0.00   0.00  -0.50     0.00   0.00  -0.49
     3   1    -0.27   0.42   0.00     0.00   0.00   0.50     0.00   0.00  -0.49
     4   6     0.05   0.00   0.00     0.00   0.00   0.00     0.00   0.00  -0.16
     5   1    -0.27  -0.42   0.00     0.00   0.00  -0.50     0.00   0.00   0.49
     6   1    -0.27   0.42   0.00     0.00   0.00   0.50     0.00   0.00   0.49
                      4                      5                      6
                     AU                     AG                     AG
 Frequencies --   1067.9302              1131.4138              1323.7891
 Red. masses --      1.1607                 1.5965                 1.0103
 Frc consts  --      0.7800                 1.2041                 1.0431
 IR Inten    --    142.3010                 0.0000                 0.0000
  Atom  AN      X      Y      Z        X      Y      Z        X      Y      Z
     1   6     0.00   0.00  -0.08     0.16   0.00   0.00     0.00   0.01   0.00
     2   1     0.00   0.00   0.50    -0.19  -0.45   0.00     0.27   0.42   0.00
     3   1     0.00   0.00   0.50    -0.19   0.45   0.00    -0.27   0.42   0.00
     4   6     0.00   0.00  -0.08    -0.16   0.00   0.00     0.00  -0.01   0.00
     5   1     0.00   0.00   0.50     0.19   0.45   0.00    -0.27  -0.42   0.00
     6   1     0.00   0.00   0.50     0.19  -0.45   0.00     0.27  -0.42   0.00
                      7                      8                      9
                     BU                     AG                     AG
 Frequencies --   1333.7542              1777.9256              2708.8969
 Red. masses --      1.1038                 7.6131                 1.0829
 Frc consts  --      1.1569                14.1789                 4.6818
 IR Inten    --     26.2483                 0.0000                 0.0000
  Atom  AN      X      Y      Z        X      Y      Z        X      Y      Z
     1   6     0.00  -0.07   0.00     0.00   0.55   0.00    -0.06   0.00   0.00
     2   1     0.31   0.39   0.00    -0.30   0.11   0.00     0.40  -0.30   0.00
     3   1    -0.31   0.39   0.00     0.30   0.11   0.00     0.40   0.30   0.00
     4   6     0.00  -0.07   0.00     0.00  -0.55   0.00     0.06   0.00   0.00
     5   1     0.31   0.39   0.00     0.30  -0.11   0.00    -0.40   0.30   0.00
     6   1    -0.31   0.39   0.00    -0.30  -0.11   0.00    -0.40  -0.30   0.00
                     10                     11                     12
                     BU                     AG                     BU
 Frequencies --   2742.8262              2783.5498              2788.4719
 Red. masses --      1.1050                 1.0564                 1.0551
 Frc consts  --      4.8979                 4.8225                 4.8337
 IR Inten    --    109.7174                 0.0000               136.8302
  Atom  AN      X      Y      Z        X      Y      Z        X      Y      Z
     1   6    -0.07   0.00   0.00     0.00  -0.05   0.00     0.00  -0.05   0.00
     2   1     0.40  -0.30   0.00    -0.42   0.27   0.00    -0.42   0.28   0.00
     3   1     0.40   0.30   0.00     0.42   0.27   0.00     0.42   0.28   0.00
     4   6    -0.07   0.00   0.00     0.00   0.05   0.00     0.00  -0.05   0.00
     5   1     0.40  -0.30   0.00     0.42  -0.27   0.00    -0.42   0.28   0.00
     6   1     0.40   0.30   0.00    -0.42  -0.27   0.00     0.42   0.28   0.00

 -------------------
 - Thermochemistry -
 -------------------
 Temperature   298.150 Kelvin.  Pressure   1.00000 Atm.
 Atom     1 has atomic number  6 and mass  12.00000
 Atom     2 has atomic number  1 and mass   1.00783
 Atom     3 has atomic number  1 and mass   1.00783
 Atom     4 has atomic number  6 and mass  12.00000
 Atom     5 has atomic number  1 and mass   1.00783
 Atom     6 has atomic number  1 and mass   1.00783
 Molecular mass:    28.03130 amu.
 Principal axes and moments of inertia in atomic units:
                           1         2         3
     Eigenvalues --    11.71632  60.62317  72.33949
           X            0.00000   1.00000   0.00000
           Y            1.00000   0.00000   0.00000
           Z            0.00000   0.00000   1.00000
 This molecule is an asymmetric top.
 Rotational symmetry number  2.
 Rotational temperatures (Kelvin)      7.39259     1.42873     1.19733
 Rotational constants (GHZ):         154.03649    29.76983    24.94822
 Zero-point vibrational energy     122105.3 (Joules/Mol)
                                   29.18387 (Kcal/Mol)
 Vibrational temperatures:   1205.49  1250.48  1509.09  1536.51  1627.85
          (Kelvin)           1904.64  1918.97  2558.04  3897.50  3946.32
                             4004.91  4011.99
 
 Zero-point correction=                           0.046507 (Hartree/Particle)
 Thermal correction to Energy=                    0.049571
 Thermal correction to Enthalpy=                  0.050515
 Thermal correction to Gibbs Free Energy=         0.024991
 Sum of electronic and zero-point Energies=              0.071619
 Sum of electronic and thermal Energies=                 0.074682
 Sum of electronic and thermal Enthalpies=               0.075627
 Sum of electronic and thermal Free Energies=            0.050102
 
                     E (Thermal)             CV                S
                      KCal/Mol        Cal/Mol-Kelvin    Cal/Mol-Kelvin
 Total                   31.106              8.284             53.721
 Electronic               0.000              0.000              0.000
 Translational            0.889              2.981             35.927
 Rotational               0.889              2.981             17.203
 Vibrational             29.329              2.322              0.591
                       Q            Log10(Q)             Ln(Q)
 Total Bot       0.319991D-11        -11.494862        -26.467898
 Total V=0       0.788976D+10          9.897064         22.788832
 Vib (Bot)       0.427564D-21        -21.368999        -49.203939
 Vib (V=0)       0.105421D+01          0.022927          0.052791
 Electronic      0.100000D+01          0.000000          0.000000
 Translational   0.583336D+07          6.765919         15.579104
 Rotational      0.128298D+04          3.108218          7.156937
 ***** Axes restored to original set *****
 -------------------------------------------------------------------
 Center     Atomic                   Forces (Hartrees/Bohr)
 Number     Number              X              Y              Z
 -------------------------------------------------------------------
      1        6          -0.000035088   -0.000068239    0.000000000
      2        1          -0.000019836    0.000020567    0.000000000
      3        1           0.000023842   -0.000006903    0.000000000
      4        6           0.000035088    0.000068239    0.000000000
      5        1           0.000019836   -0.000020567    0.000000000
      6        1          -0.000023842    0.000006903    0.000000000
 -------------------------------------------------------------------
 Cartesian Forces:  Max     0.000068239 RMS     0.000028519
 FormGI is forming the generalized inverse of G from B-inverse, IUseBI=4.

 GradGradGradGradGradGradGradGradGradGradGradGradGradGradGradGradGradGrad
 Berny optimization.
 Internal  Forces:  Max     0.000062804 RMS     0.000021482
 Search for a local minimum.
 Step number   1 out of a maximum of    2
 All quantities printed in internal units (Hartrees-Bohrs-Radians)
 Second derivative matrix not updated -- analytic derivatives used.
 The second derivative matrix:
                          R1        R2        R3        R4        R5
           R1           0.27148
           R2           0.01307   0.27148
           R3           0.03151   0.03151   0.78795
           R4           0.00117   0.00098   0.03151   0.27148
           R5           0.00098   0.00117   0.03151   0.01307   0.27148
           A1           0.00214   0.00214  -0.03312  -0.00064  -0.00064
           A2           0.01855  -0.02070   0.01656   0.00207  -0.00143
           A3          -0.02070   0.01855   0.01656  -0.00143   0.00207
           A4           0.00207  -0.00143   0.01656   0.01855  -0.02070
           A5          -0.00143   0.00207   0.01656  -0.02070   0.01855
           A6          -0.00064  -0.00064  -0.03312   0.00214   0.00214
           D1           0.00000   0.00000   0.00000   0.00000   0.00000
           D2           0.00000   0.00000   0.00000   0.00000   0.00000
           D3           0.00000   0.00000   0.00000   0.00000   0.00000
           D4           0.00000   0.00000   0.00000   0.00000   0.00000
                          A1        A2        A3        A4        A5
           A1           0.05945
           A2          -0.02972   0.07326
           A3          -0.02972  -0.04354   0.07326
           A4          -0.00138   0.00342  -0.00204   0.07326
           A5          -0.00138  -0.00204   0.00342  -0.04354   0.07326
           A6           0.00276  -0.00138  -0.00138  -0.02972  -0.02972
           D1           0.00000   0.00000   0.00000   0.00000   0.00000
           D2           0.00000   0.00000   0.00000   0.00000   0.00000
           D3           0.00000   0.00000   0.00000   0.00000   0.00000
           D4           0.00000   0.00000   0.00000   0.00000   0.00000
                          A6        D1        D2        D3        D4
           A6           0.05945
           D1           0.00000   0.03228
           D2           0.00000   0.00523   0.02421
           D3           0.00000   0.00523  -0.01375   0.02421
           D4           0.00000  -0.02182   0.00523   0.00523   0.03228
 ITU=  0
     Eigenvalues ---    0.02092   0.03796   0.05411   0.08492   0.08830
     Eigenvalues ---    0.10310   0.10997   0.26646   0.27090   0.27938
     Eigenvalues ---    0.28251   0.80029
 Angle between quadratic step and forces=  33.62 degrees.
 Linear search not attempted -- first point.
 Iteration  1 RMS(Cart)=  0.00007765 RMS(Int)=  0.00000000
 Iteration  2 RMS(Cart)=  0.00000000 RMS(Int)=  0.00000000
 ClnCor:  largest displacement from symmetrization is 1.28D-13 for atom     1.
 Variable       Old X    -DE/DX   Delta X   Delta X   Delta X     New X
                                 (Linear)    (Quad)   (Total)
    R1        2.04418  -0.00003   0.00000  -0.00011  -0.00011   2.04407
    R2        2.04416  -0.00002   0.00000  -0.00009  -0.00009   2.04407
    R3        2.50826   0.00006   0.00000   0.00008   0.00008   2.50835
    R4        2.04418  -0.00003   0.00000  -0.00011  -0.00011   2.04407
    R5        2.04416  -0.00002   0.00000  -0.00009  -0.00009   2.04407
    A1        1.97257  -0.00001   0.00000  -0.00009  -0.00009   1.97248
    A2        2.15530   0.00001   0.00000   0.00005   0.00005   2.15535
    A3        2.15531   0.00001   0.00000   0.00004   0.00004   2.15535
    A4        2.15530   0.00001   0.00000   0.00005   0.00005   2.15535
    A5        2.15531   0.00001   0.00000   0.00004   0.00004   2.15535
    A6        1.97257  -0.00001   0.00000  -0.00009  -0.00009   1.97248
    D1        3.14159   0.00000   0.00000   0.00000   0.00000   3.14159
    D2        0.00000   0.00000   0.00000   0.00000   0.00000   0.00000
    D3        0.00000   0.00000   0.00000   0.00000   0.00000   0.00000
    D4        3.14159   0.00000   0.00000   0.00000   0.00000   3.14159
         Item               Value     Threshold  Converged?
 Maximum Force            0.000063     0.000450     YES
 RMS     Force            0.000021     0.000300     YES
 Maximum Displacement     0.000148     0.001800     YES
 RMS     Displacement     0.000078     0.001200     YES
 Predicted change in Energy=-9.132628D-09
 Optimization completed.
    -- Stationary point found.
                           ----------------------------
                           !   Optimized Parameters   !
                           ! (Angstroms and Degrees)  !
 --------------------------                            --------------------------
 ! Name  Definition              Value          Derivative Info.                !
 --------------------------------------------------------------------------------
 ! R1    R(1,2)                  1.0817         -DE/DX =    0.0                 !
 ! R2    R(1,3)                  1.0817         -DE/DX =    0.0                 !
 ! R3    R(1,4)                  1.3273         -DE/DX =    0.0001              !
 ! R4    R(4,5)                  1.0817         -DE/DX =    0.0                 !
 ! R5    R(4,6)                  1.0817         -DE/DX =    0.0                 !
 ! A1    A(2,1,3)              113.02           -DE/DX =    0.0                 !
 ! A2    A(2,1,4)              123.4897         -DE/DX =    0.0                 !
 ! A3    A(3,1,4)              123.4903         -DE/DX =    0.0                 !
 ! A4    A(1,4,5)              123.4897         -DE/DX =    0.0                 !
 ! A5    A(1,4,6)              123.4903         -DE/DX =    0.0                 !
 ! A6    A(5,4,6)              113.02           -DE/DX =    0.0                 !
 ! D1    D(2,1,4,5)            180.0            -DE/DX =    0.0                 !
 ! D2    D(2,1,4,6)              0.0            -DE/DX =    0.0                 !
 ! D3    D(3,1,4,5)              0.0            -DE/DX =    0.0                 !
 ! D4    D(3,1,4,6)            180.0            -DE/DX =    0.0                 !
 --------------------------------------------------------------------------------
 GradGradGradGradGradGradGradGradGradGradGradGradGradGradGradGradGradGrad

 Dipole is zero, so no output in dipole orientation.

 ----------------------------------------------------------------------

 Electric dipole moment (input orientation):
 (Debye = 10**-18 statcoulomb cm , SI units = C m)
                  (au)            (Debye)         (10**-30 SI)
   Tot        0.000000D+00      0.000000D+00      0.000000D+00
   x          0.000000D+00      0.000000D+00      0.000000D+00
   y          0.000000D+00      0.000000D+00      0.000000D+00
   z          0.000000D+00      0.000000D+00      0.000000D+00

 Dipole polarizability, Alpha (input orientation).
 (esu units = cm**3 , SI units = C**2 m**2 J**-1)
 Alpha(0;0):
               (au)            (10**-24 esu)      (10**-40 SI)
   iso        0.147339D+02      0.218334D+01      0.242929D+01
   aniso      0.225635D+02      0.334356D+01      0.372022D+01
   xx         0.160913D+02      0.238448D+01      0.265309D+01
   yx         0.743583D+01      0.110188D+01      0.122600D+01
   yy         0.246868D+02      0.365820D+01      0.407030D+01
   zx         0.000000D+00      0.000000D+00      0.000000D+00
   zy         0.000000D+00      0.000000D+00      0.000000D+00
   zz         0.342363D+01      0.507329D+00      0.564480D+00

 ----------------------------------------------------------------------
 Unable to Open any file for archive entry.
 1|1|UNPC-SKCH-134-016|Freq|RPM6|ZDO|C2H4|AL6323|10-Nov-2025|0||#N Geom
 =AllCheck Guess=TCheck SCRF=Check GenChk RPM6/ZDO Freq||ethene_opt+fre
 q||0,1|C,-2.6355688996,-0.3646901944,0.|H,-2.1525070939,-1.332570915,0
 .|H,-3.7152694627,-0.4307924499,0.|C,-1.9721755804,0.7849505232,0.|H,-
 2.4552373861,1.7528312437,0.|H,-0.8924750173,0.8510527786,0.||Version=
 EM64W-G16RevC.01|State=1-AG|HF=0.0251113|RMSD=3.650e-010|RMSF=2.852e-0
 05|ZeroPoint=0.0465075|Thermal=0.0495711|ETot=0.0746824|HTot=0.0756266
 |GTot=0.0501019|Dipole=0.,0.,0.|DipoleDeriv=-0.333713,0.0039965,0.,0.0
 039951,-0.3290917,0.,0.,0.,-0.3548991,0.1064767,-0.0718747,0.,-0.00191
 62,0.2249247,0.,0.,0.,0.1774496,0.2272363,0.0678777,0.,-0.0020794,0.10
 41665,0.,0.,0.,0.1774495,-0.333713,0.0039965,0.,0.0039951,-0.3290917,0
 .,0.,0.,-0.3548991,0.1064767,-0.0718747,0.,-0.0019162,0.2249247,0.,0.,
 0.,0.1774496,0.2272363,0.0678777,0.,-0.0020794,0.1041665,0.,0.,0.,0.17
 74495|Polar=16.0912512,7.4358285,24.686763,0.,0.,3.4236269|HyperPolar=
 0.,0.,0.,0.,0.,0.,0.,0.,0.,0.|PG=C02H [SGH(C2H4)]|NImag=0||0.53434897,
 0.20746822,0.77415829,0.,0.,0.13146720,-0.07550465,0.07865155,0.,0.084
 54655,0.07554317,-0.18463478,0.,-0.08526542,0.23293174,0.,0.,-0.043433
 65,0.,0.,0.02304987,-0.22411716,-0.01034895,0.,-0.01709457,0.00680994,
 0.,0.26966209,-0.00724036,-0.03602567,0.,0.02011924,-0.00153037,0.,0.0
 2172438,0.04781977,0.,0.,-0.04343223,0.,0.,0.00863644,0.,0.,0.02304838
 ,-0.21455651,-0.24808452,0.,0.00810327,0.00479375,0.,-0.02827397,-0.03
 248027,0.,0.53434897,-0.24808452,-0.50132346,0.,-0.01145507,-0.0442757
 7,0.,-0.01623123,-0.00789866,0.,0.20746822,0.77415829,0.,0.,-0.0569835
 3,0.,0.,0.00619117,0.,0.,0.00619112,0.,0.,0.13146720,0.00810327,-0.011
 45507,0.,-0.00088977,-0.00118132,0.,0.00083917,-0.00086900,0.,-0.07550
 465,0.07865155,0.,0.08454655,0.00479375,-0.04427577,0.,-0.00118132,-0.
 00242304,0.,-0.00070013,-0.00006773,0.,0.07554317,-0.18463478,0.,-0.08
 526542,0.23293174,0.,0.,0.00619117,0.,0.,0.00997680,0.,0.,-0.00442066,
 0.,0.,-0.04343365,0.,0.,0.02304987,-0.02827397,-0.01623123,0.,0.000839
 17,-0.00070013,0.,-0.00101552,-0.00125399,0.,-0.22411716,-0.01034895,0
 .,-0.01709457,0.00680994,0.,0.26966209,-0.03248027,-0.00789866,0.,-0.0
 0086900,-0.00006773,0.,-0.00125399,-0.00229732,0.,-0.00724036,-0.03602
 567,0.,0.02011924,-0.00153037,0.,0.02172438,0.04781977,0.,0.,0.0061911
 2,0.,0.,-0.00442066,0.,0.,0.00997690,0.,0.,-0.04343223,0.,0.,0.0086364
 4,0.,0.,0.02304838||0.00003509,0.00006824,0.,0.00001984,-0.00002057,0.
 ,-0.00002384,0.00000690,0.,-0.00003509,-0.00006824,0.,-0.00001984,0.00
 002057,0.,0.00002384,-0.00000690,0.|||@
 The archive entry for this job was punched.


 IF YOU'RE N