 Default is to use a total of   8 processors:
                                8 via shared-memory
                                1 via Linda
 Entering Link 1 = C:\G16W\l1.exe PID=       316.
  
 Copyright (c) 1988-2019, Gaussian, Inc.  All Rights Reserved.
  
 This is part of the Gaussian(R) 16 program.  It is based on
 the Gaussian(R) 09 system (copyright 2009, Gaussian, Inc.),
 the Gaussian(R) 03 system (copyright 2003, Gaussian, Inc.),
 the Gaussian(R) 98 system (copyright 1998, Gaussian, Inc.),
 the Gaussian(R) 94 system (copyright 1995, Gaussian, Inc.),
 the Gaussian 92(TM) system (copyright 1992, Gaussian, Inc.),
 the Gaussian 90(TM) system (copyright 1990, Gaussian, Inc.),
 the Gaussian 88(TM) system (copyright 1988, Gaussian, Inc.),
 the Gaussian 86(TM) system (copyright 1986, Carnegie Mellon
 University), and the Gaussian 82(TM) system (copyright 1983,
 Carnegie Mellon University). Gaussian is a federally registered
 trademark of Gaussian, Inc.
  
 This software contains proprietary and confidential information,
 including trade secrets, belonging to Gaussian, Inc.
  
 This software is provided under written license and may be
 used, copied, transmitted, or stored only in accord with that
 written license.
  
 The following legend is applicable only to US Government
 contracts under FAR:
  
                    RESTRICTED RIGHTS LEGEND
  
 Use, reproduction and disclosure by the US Government is
 subject to restrictions as set forth in subparagraphs (a)
 and (c) of the Commercial Computer Software - Restricted
 Rights clause in FAR 52.227-19.
  
 Gaussian, Inc.
 340 Quinnipiac St., Bldg. 40, Wallingford CT 06492
  
  
 ---------------------------------------------------------------
 Warning -- This program may not be used in any manner that
 competes with the business of Gaussian, Inc. or will provide
 assistance to any competitor of Gaussian, Inc.  The licensee
 of this program is prohibited from giving any competitor of
 Gaussian, Inc. access to this program.  By using this program,
 the user acknowledges that Gaussian, Inc. is engaged in the
 business of creating and licensing software in the field of
 computational chemistry and represents and warrants to the
 licensee that it is not a competitor of Gaussian, Inc. and that
 it will not use this program in any manner prohibited above.
 ---------------------------------------------------------------
  

 Cite this work as:
 Gaussian 16, Revision C.01,
 M. J. Frisch, G. W. Trucks, H. B. Schlegel, G. E. Scuseria, 
 M. A. Robb, J. R. Cheeseman, G. Scalmani, V. Barone, 
 G. A. Petersson, H. Nakatsuji, X. Li, M. Caricato, A. V. Marenich, 
 J. Bloino, B. G. Janesko, R. Gomperts, B. Mennucci, H. P. Hratchian, 
 J. V. Ortiz, A. F. Izmaylov, J. L. Sonnenberg, D. Williams-Young, 
 F. Ding, F. Lipparini, F. Egidi, J. Goings, B. Peng, A. Petrone, 
 T. Henderson, D. Ranasinghe, V. G. Zakrzewski, J. Gao, N. Rega, 
 G. Zheng, W. Liang, M. Hada, M. Ehara, K. Toyota, R. Fukuda, 
 J. Hasegawa, M. Ishida, T. Nakajima, Y. Honda, O. Kitao, H. Nakai, 
 T. Vreven, K. Throssell, J. A. Montgomery, Jr., J. E. Peralta, 
 F. Ogliaro, M. J. Bearpark, J. J. Heyd, E. N. Brothers, K. N. Kudin, 
 V. N. Staroverov, T. A. Keith, R. Kobayashi, J. Normand, 
 K. Raghavachari, A. P. Rendell, J. C. Burant, S. S. Iyengar, 
 J. Tomasi, M. Cossi, J. M. Millam, M. Klene, C. Adamo, R. Cammi, 
 J. W. Ochterski, R. L. Martin, K. Morokuma, O. Farkas, 
 J. B. Foresman, and D. J. Fox, Gaussian, Inc., Wallingford CT, 2019.
 
 ******************************************
 Gaussian 16:  EM64W-G16RevC.01 30-May-2019
                11-Nov-2025 
 ******************************************
 %chk=C:\Users\al6323\OneDrive - Imperial College London\Desktop\TSR20251111\TS_g
 uess_opt_TS(Berny)_Check.chk
 Default route: MaxDisk=10GB
 ------------------------------------------------------
 # freq pm6 opt=(maxcycles=200,noeigen) scf=(xqc,tight)
 ------------------------------------------------------
 1/6=200,11=1,18=20,19=15,26=1,38=1/1,3;
 2/9=110,12=2,17=6,18=5,40=1/2;
 3/5=2,25=1,41=3900000,71=1/1,2,3;
 4/35=1/1;
 5/5=2,8=3,13=1,32=2,35=1,38=5/2,8;
 6/7=2,8=2,9=2,10=2,28=1/1;
 7//1,2,3,16;
 1/6=200,11=1,18=20,19=15,26=1/3(2);
 2/9=110/2;
 99//99;
 2/9=110/2;
 3/5=2,25=1,41=3900000,71=1,135=20/1,2,3;
 4/5=5,16=3,35=1/1;
 5/5=2,8=3,13=1,32=2,35=1,38=5/2,8;
 7//1,2,3,16;
 1/6=200,11=1,18=20,19=15,26=1/3(-5);
 2/9=110/2;
 6/7=2,8=2,9=2,10=2,19=2,28=1/1;
 99/9=1/99;
 ----------
 TS (Berny)
 ----------
 Symbolic Z-matrix:
 Charge =  0 Multiplicity = 1
 C                    -0.67179   0.95411   0.10773 
 C                     0.03391  -0.17322  -0.25954 
 C                     1.445    -0.17424  -0.25259 
 C                     2.14869   0.95205   0.12162 
 C                     1.41977   1.19953   2.09128 
 C                     0.03803   1.20055   2.08446 
 H                    -0.30005   1.95315  -0.09757 
 H                    -1.74297   0.91672   0.25514 
 H                    -0.48342  -1.12266  -0.39486 
 H                     1.96226  -1.12444  -0.38281 
 H                     1.78045   1.95164  -0.08733 
 H                     3.21831   0.91311   0.27958 
 H                     1.97614   2.12485   2.17301 
 H                     1.96985   0.32116   2.40671 
 H                    -0.51776   2.12669   2.16072 
 H                    -0.51642   0.323     2.39446 
 
 Add virtual bond connecting atoms C5         and C4         Dist= 4.00D+00.
 Add virtual bond connecting atoms C6         and C1         Dist= 4.00D+00.

 GradGradGradGradGradGradGradGradGradGradGradGradGradGradGradGradGradGrad
 Berny optimization.
 Initialization pass.
                           ----------------------------
                           !    Initial Parameters    !
                           ! (Angstroms and Degrees)  !
 --------------------------                            --------------------------
 ! Name  Definition              Value          Derivative Info.                !
 --------------------------------------------------------------------------------
 ! R1    R(1,2)                  1.3798         estimate D2E/DX2                !
 ! R2    R(1,6)                  2.1147         estimate D2E/DX2                !
 ! R3    R(1,7)                  1.0856         estimate D2E/DX2                !
 ! R4    R(1,8)                  1.0819         estimate D2E/DX2                !
 ! R5    R(2,3)                  1.4111         estimate D2E/DX2                !
 ! R6    R(2,9)                  1.0897         estimate D2E/DX2                !
 ! R7    R(3,4)                  1.3798         estimate D2E/DX2                !
 ! R8    R(3,10)                 1.0897         estimate D2E/DX2                !
 ! R9    R(4,5)                  2.1147         estimate D2E/DX2                !
 ! R10   R(4,11)                 1.0856         estimate D2E/DX2                !
 ! R11   R(4,12)                 1.0819         estimate D2E/DX2                !
 ! R12   R(5,6)                  1.3818         estimate D2E/DX2                !
 ! R13   R(5,13)                 1.0828         estimate D2E/DX2                !
 ! R14   R(5,14)                 1.0833         estimate D2E/DX2                !
 ! R15   R(6,15)                 1.0828         estimate D2E/DX2                !
 ! R16   R(6,16)                 1.0833         estimate D2E/DX2                !
 ! A1    A(2,1,6)               99.9248         estimate D2E/DX2                !
 ! A2    A(2,1,7)              121.7653         estimate D2E/DX2                !
 ! A3    A(2,1,8)              120.9586         estimate D2E/DX2                !
 ! A4    A(6,1,7)               87.3975         estimate D2E/DX2                !
 ! A5    A(6,1,8)              102.0633         estimate D2E/DX2                !
 ! A6    A(7,1,8)              113.3663         estimate D2E/DX2                !
 ! A7    A(1,2,3)              120.7131         estimate D2E/DX2                !
 ! A8    A(1,2,9)              120.141          estimate D2E/DX2                !
 ! A9    A(3,2,9)              118.3418         estimate D2E/DX2                !
 ! A10   A(2,3,4)              120.7131         estimate D2E/DX2                !
 ! A11   A(2,3,10)             118.3418         estimate D2E/DX2                !
 ! A12   A(4,3,10)             120.141          estimate D2E/DX2                !
 ! A13   A(3,4,5)               99.924          estimate D2E/DX2                !
 ! A14   A(3,4,11)             121.7654         estimate D2E/DX2                !
 ! A15   A(3,4,12)             120.9587         estimate D2E/DX2                !
 ! A16   A(5,4,11)              87.3974         estimate D2E/DX2                !
 ! A17   A(5,4,12)             102.0636         estimate D2E/DX2                !
 ! A18   A(11,4,12)            113.3664         estimate D2E/DX2                !
 ! A19   A(4,5,6)              109.8876         estimate D2E/DX2                !
 ! A20   A(4,5,13)              89.6106         estimate D2E/DX2                !
 ! A21   A(4,5,14)              90.0739         estimate D2E/DX2                !
 ! A22   A(6,5,13)             120.9016         estimate D2E/DX2                !
 ! A23   A(6,5,14)             120.6499         estimate D2E/DX2                !
 ! A24   A(13,5,14)            114.2046         estimate D2E/DX2                !
 ! A25   A(1,6,5)              109.8873         estimate D2E/DX2                !
 ! A26   A(1,6,15)              89.6114         estimate D2E/DX2                !
 ! A27   A(1,6,16)              90.0742         estimate D2E/DX2                !
 ! A28   A(5,6,15)             120.9015         estimate D2E/DX2                !
 ! A29   A(5,6,16)             120.65           estimate D2E/DX2                !
 ! A30   A(15,6,16)            114.2044         estimate D2E/DX2                !
 ! D1    D(6,1,2,3)            -59.6271         estimate D2E/DX2                !
 ! D2    D(6,1,2,9)            109.9342         estimate D2E/DX2                !
 ! D3    D(7,1,2,3)             33.4755         estimate D2E/DX2                !
 ! D4    D(7,1,2,9)           -156.9633         estimate D2E/DX2                !
 ! D5    D(8,1,2,3)           -170.2599         estimate D2E/DX2                !
 ! D6    D(8,1,2,9)             -0.6986         estimate D2E/DX2                !
 ! D7    D(2,1,6,5)             52.0711         estimate D2E/DX2                !
 ! D8    D(2,1,6,15)           175.0064         estimate D2E/DX2                !
 ! D9    D(2,1,6,16)           -70.7891         estimate D2E/DX2                !
 ! D10   D(7,1,6,5)            -69.7345         estimate D2E/DX2                !
 ! D11   D(7,1,6,15)            53.2009         estimate D2E/DX2                !
 ! D12   D(7,1,6,16)           167.4054         estimate D2E/DX2                !
 ! D13   D(8,1,6,5)            176.9204         estimate D2E/DX2                !
 ! D14   D(8,1,6,15)           -60.1442         estimate D2E/DX2                !
 ! D15   D(8,1,6,16)            54.0602         estimate D2E/DX2                !
 ! D16   D(1,2,3,4)             -0.0003         estimate D2E/DX2                !
 ! D17   D(1,2,3,10)           169.7449         estimate D2E/DX2                !
 ! D18   D(9,2,3,4)           -169.7455         estimate D2E/DX2                !
 ! D19   D(9,2,3,10)            -0.0002         estimate D2E/DX2                !
 ! D20   D(2,3,4,5)             59.6272         estimate D2E/DX2                !
 ! D21   D(2,3,4,11)           -33.4749         estimate D2E/DX2                !
 ! D22   D(2,3,4,12)           170.2598         estimate D2E/DX2                !
 ! D23   D(10,3,4,5)          -109.9342         estimate D2E/DX2                !
 ! D24   D(10,3,4,11)          156.9638         estimate D2E/DX2                !
 ! D25   D(10,3,4,12)            0.6984         estimate D2E/DX2                !
 ! D26   D(3,4,5,6)            -52.0723         estimate D2E/DX2                !
 ! D27   D(3,4,5,13)          -175.0075         estimate D2E/DX2                !
 ! D28   D(3,4,5,14)            70.7878         estimate D2E/DX2                !
 ! D29   D(11,4,5,6)            69.7333         estimate D2E/DX2                !
 ! D30   D(11,4,5,13)          -53.2019         estimate D2E/DX2                !
 ! D31   D(11,4,5,14)         -167.4066         estimate D2E/DX2                !
 ! D32   D(12,4,5,6)          -176.9215         estimate D2E/DX2                !
 ! D33   D(12,4,5,13)           60.1433         estimate D2E/DX2                !
 ! D34   D(12,4,5,14)          -54.0614         estimate D2E/DX2                !
 ! D35   D(4,5,6,1)              0.0007         estimate D2E/DX2                !
 ! D36   D(4,5,6,15)          -102.0108         estimate D2E/DX2                !
 ! D37   D(4,5,6,16)           102.4726         estimate D2E/DX2                !
 ! D38   D(13,5,6,1)           102.0114         estimate D2E/DX2                !
 ! D39   D(13,5,6,15)           -0.0001         estimate D2E/DX2                !
 ! D40   D(13,5,6,16)         -155.5166         estimate D2E/DX2                !
 ! D41   D(14,5,6,1)          -102.471          estimate D2E/DX2                !
 ! D42   D(14,5,6,15)          155.5175         estimate D2E/DX2                !
 ! D43   D(14,5,6,16)            0.0009         estimate D2E/DX2                !
 --------------------------------------------------------------------------------
 Trust Radius=3.00D-01 FncErr=1.00D-07 GrdErr=1.00D-07 EigMax=2.50D+02 EigMin=1.00D-04
 Number of steps in this run=    100 maximum allowed number of steps=    100.
 GradGradGradGradGradGradGradGradGradGradGradGradGradGradGradGradGradGrad

                          Input orientation:                          
 ---------------------------------------------------------------------
 Center     Atomic      Atomic             Coordinates (Angstroms)
 Number     Number       Type             X           Y           Z
 ---------------------------------------------------------------------
      1          6           0       -0.671785    0.954106    0.107729
      2          6           0        0.033912   -0.173215   -0.259543
      3          6           0        1.445002   -0.174244   -0.252590
      4          6           0        2.148689    0.952052    0.121619
      5          6           0        1.419769    1.199528    2.091276
      6          6           0        0.038030    1.200546    2.084465
      7          1           0       -0.300047    1.953155   -0.097574
      8          1           0       -1.742966    0.916721    0.255136
      9          1           0       -0.483418   -1.122656   -0.394863
     10          1           0        1.962256   -1.124439   -0.382809
     11          1           0        1.780446    1.951639   -0.087327
     12          1           0        3.218309    0.913108    0.279577
     13          1           0        1.976141    2.124848    2.173014
     14          1           0        1.969846    0.321164    2.406707
     15          1           0       -0.517756    2.126687    2.160721
     16          1           0       -0.516425    0.323000    2.394464
 ---------------------------------------------------------------------
                    Distance matrix (angstroms):
                    1          2          3          4          5
     1  C    0.000000
     2  C    1.379765   0.000000
     3  C    2.425653   1.411107   0.000000
     4  C    2.820509   2.425653   1.379765   0.000000
     5  C    2.892972   3.054729   2.716909   2.114738   0.000000
     6  C    2.114723   2.716911   3.054741   2.892991   1.381756
     7  H    1.085558   2.158521   2.755912   2.654536   2.883884
     8  H    1.081922   2.147126   3.407511   3.894105   3.668008
     9  H    2.144999   1.089669   2.153725   3.391040   3.898147
    10  H    3.391040   2.153725   1.089669   2.144999   3.437472
    11  H    2.654535   2.755911   2.158521   1.085558   2.332825
    12  H    3.894104   3.407511   2.147127   1.081921   2.568859
    13  H    3.556339   3.869196   3.384005   2.369271   1.082797
    14  H    3.558669   3.331837   2.755494   2.377315   1.083330
    15  H    2.369271   3.384016   3.869208   3.556351   2.149058
    16  H    2.377307   2.755513   3.331868   3.558702   2.146874
                    6          7          8          9         10
     6  C    0.000000
     7  H    2.332812   0.000000
     8  H    2.568841   1.811247   0.000000
     9  H    3.437476   3.095580   2.483549   0.000000
    10  H    3.898159   3.830269   4.278081   2.445704   0.000000
    11  H    2.883892   2.080519   3.688193   3.830267   3.095581
    12  H    3.668026   3.688193   4.961336   4.278082   2.483551
    13  H    2.149058   3.219640   4.355408   4.815569   4.134041
    14  H    2.146874   3.753296   4.332311   3.993985   3.141851
    15  H    1.082797   2.275392   2.568347   4.134055   4.815582
    16  H    1.083331   2.985712   2.536460   3.141872   3.994019
                   11         12         13         14         15
    11  H    0.000000
    12  H    1.811247   0.000000
    13  H    2.275399   2.568345   0.000000
    14  H    2.985720   2.536481   1.818771   0.000000
    15  H    3.219642   4.355417   2.493929   3.083599   0.000000
    16  H    3.753314   4.332345   3.083599   2.486302   1.818769
                   16
    16  H    0.000000
 Stoichiometry    C6H10
 Framework group  C1[X(C6H10)]
 Deg. of freedom    42
 Full point group                 C1      NOp   1
 Largest Abelian subgroup         C1      NOp   1
 Largest concise Abelian subgroup C1      NOp   1
                         Standard orientation:                         
 ---------------------------------------------------------------------
 Center     Atomic      Atomic             Coordinates (Angstroms)
 Number     Number       Type             X           Y           Z
 ---------------------------------------------------------------------
      1          6           0        0.379545    1.410275    0.509719
      2          6           0        1.260179    0.705630   -0.285084
      3          6           0        1.260268   -0.705477   -0.285085
      4          6           0        0.379730   -1.410235    0.509722
      5          6           0       -1.456424   -0.690964   -0.254022
      6          6           0       -1.456514    0.690793   -0.254010
      7          1           0        0.064050    1.040260    1.480281
      8          1           0        0.265797    2.480681    0.400883
      9          1           0        1.846319    1.222967   -1.044151
     10          1           0        1.846472   -1.222738   -1.044155
     11          1           0        0.064185   -1.040258    1.480282
     12          1           0        0.266114   -2.480655    0.400885
     13          1           0       -1.983917   -1.247092    0.510780
     14          1           0       -1.292729   -1.243218   -1.171532
     15          1           0       -1.984081    1.246837    0.510802
     16          1           0       -1.292906    1.243084   -1.171513
 ---------------------------------------------------------------------
 Rotational constants (GHZ):           4.3991522           3.8661934           2.4556562
 Standard basis: VSTO-6G (5D, 7F)
 There are    34 symmetry adapted cartesian basis functions of A   symmetry.
 There are    34 symmetry adapted basis functions of A   symmetry.
    34 basis functions,   204 primitive gaussians,    34 cartesian basis functions
    17 alpha electrons       17 beta electrons
       nuclear repulsion energy       144.0469958352 Hartrees.
 Integral buffers will be    131072 words long.
 Regular integral format.
 Two-electron integral symmetry is turned off.
 Do NDO integrals.
 One-electron integrals computed using PRISM.
 NBasis=    34 RedAO= F EigKep=  0.00D+00  NBF=    34
 NBsUse=    34 1.00D-04 EigRej=  0.00D+00 NBFU=    34
 Simple Huckel Guess.
 Keep J ints in memory in canonical form, NReq=862326.
 Overlap will be assumed to be unity.
 Requested convergence on RMS density matrix=1.00D-08 within  32 cycles.
 Requested convergence on MAX density matrix=1.00D-06.
 Requested convergence on             energy=1.00D-06.
 No special actions if energy rises.
 SCF Done:  E(RPM6) =  0.112859952917     A.U. after   16 cycles
            NFock= 15  Conv=0.18D-08     -V/T= 1.0022
 QCSCF skips out because SCF is already converged.

 **********************************************************************

            Population analysis using the SCF Density.

 **********************************************************************

 Orbital symmetries:
       Occupied  (A) (A) (A) (A) (A) (A) (A) (A) (A) (A) (A) (A)
                 (A) (A) (A) (A) (A)
       Virtual   (A) (A) (A) (A) (A) (A) (A) (A) (A) (A) (A) (A)
                 (A) (A) (A) (A) (A)
 The electronic state is 1-A.
 Alpha  occ. eigenvalues --   -1.05766  -0.95267  -0.92622  -0.80596  -0.75184
 Alpha  occ. eigenvalues --   -0.65649  -0.61926  -0.58826  -0.53048  -0.51234
 Alpha  occ. eigenvalues --   -0.50175  -0.46229  -0.46105  -0.44022  -0.42925
 Alpha  occ. eigenvalues --   -0.32755  -0.32533
 Alpha virt. eigenvalues --    0.01732   0.03067   0.09826   0.18495   0.19366
 Alpha virt. eigenvalues --    0.20970   0.21010   0.21629   0.21823   0.22492
 Alpha virt. eigenvalues --    0.22901   0.23496   0.23825   0.23973   0.24445
 Alpha virt. eigenvalues --    0.24462   0.24928
          Condensed to atoms (all electrons):
               1          2          3          4          5          6
     1  C    4.268439   0.000000   0.000000   0.000000   0.000000   0.000000
     2  C    0.000000   4.153907   0.000000   0.000000   0.000000   0.000000
     3  C    0.000000   0.000000   4.153902   0.000000   0.000000   0.000000
     4  C    0.000000   0.000000   0.000000   4.268443   0.000000   0.000000
     5  C    0.000000   0.000000   0.000000   0.000000   4.280327   0.000000
     6  C    0.000000   0.000000   0.000000   0.000000   0.000000   4.280328
     7  H    0.000000   0.000000   0.000000   0.000000   0.000000   0.000000
     8  H    0.000000   0.000000   0.000000   0.000000   0.000000   0.000000
     9  H    0.000000   0.000000   0.000000   0.000000   0.000000   0.000000
    10  H    0.000000   0.000000   0.000000   0.000000   0.000000   0.000000
    11  H    0.000000   0.000000   0.000000   0.000000   0.000000   0.000000
    12  H    0.000000   0.000000   0.000000   0.000000   0.000000   0.000000
    13  H    0.000000   0.000000   0.000000   0.000000   0.000000   0.000000
    14  H    0.000000   0.000000   0.000000   0.000000   0.000000   0.000000
    15  H    0.000000   0.000000   0.000000   0.000000   0.000000   0.000000
    16  H    0.000000   0.000000   0.000000   0.000000   0.000000   0.000000
               7          8          9         10         11         12
     1  C    0.000000   0.000000   0.000000   0.000000   0.000000   0.000000
     2  C    0.000000   0.000000   0.000000   0.000000   0.000000   0.000000
     3  C    0.000000   0.000000   0.000000   0.000000   0.000000   0.000000
     4  C    0.000000   0.000000   0.000000   0.000000   0.000000   0.000000
     5  C    0.000000   0.000000   0.000000   0.000000   0.000000   0.000000
     6  C    0.000000   0.000000   0.000000   0.000000   0.000000   0.000000
     7  H    0.850794   0.000000   0.000000   0.000000   0.000000   0.000000
     8  H    0.000000   0.865341   0.000000   0.000000   0.000000   0.000000
     9  H    0.000000   0.000000   0.862497   0.000000   0.000000   0.000000
    10  H    0.000000   0.000000   0.000000   0.862497   0.000000   0.000000
    11  H    0.000000   0.000000   0.000000   0.000000   0.850794   0.000000
    12  H    0.000000   0.000000   0.000000   0.000000   0.000000   0.865340
    13  H    0.000000   0.000000   0.000000   0.000000   0.000000   0.000000
    14  H    0.000000   0.000000   0.000000   0.000000   0.000000   0.000000
    15  H    0.000000   0.000000   0.000000   0.000000   0.000000   0.000000
    16  H    0.000000   0.000000   0.000000   0.000000   0.000000   0.000000
              13         14         15         16
     1  C    0.000000   0.000000   0.000000   0.000000
     2  C    0.000000   0.000000   0.000000   0.000000
     3  C    0.000000   0.000000   0.000000   0.000000
     4  C    0.000000   0.000000   0.000000   0.000000
     5  C    0.000000   0.000000   0.000000   0.000000
     6  C    0.000000   0.000000   0.000000   0.000000
     7  H    0.000000   0.000000   0.000000   0.000000
     8  H    0.000000   0.000000   0.000000   0.000000
     9  H    0.000000   0.000000   0.000000   0.000000
    10  H    0.000000   0.000000   0.000000   0.000000
    11  H    0.000000   0.000000   0.000000   0.000000
    12  H    0.000000   0.000000   0.000000   0.000000
    13  H    0.862551   0.000000   0.000000   0.000000
    14  H    0.000000   0.856143   0.000000   0.000000
    15  H    0.000000   0.000000   0.862552   0.000000
    16  H    0.000000   0.000000   0.000000   0.856143
 Mulliken charges:
               1
     1  C   -0.268439
     2  C   -0.153907
     3  C   -0.153902
     4  C   -0.268443
     5  C   -0.280327
     6  C   -0.280328
     7  H    0.149206
     8  H    0.134659
     9  H    0.137503
    10  H    0.137503
    11  H    0.149206
    12  H    0.134660
    13  H    0.137449
    14  H    0.143857
    15  H    0.137448
    16  H    0.143857
 Sum of Mulliken charges =   0.00000
 Mulliken charges with hydrogens summed into heavy atoms:
               1
     1  C    0.015426
     2  C   -0.016404
     3  C   -0.016399
     4  C    0.015422
     5  C    0.000978
     6  C    0.000977
 Charge=              0.0000 electrons
 Dipole moment (field-independent basis, Debye):
    X=             -0.5317    Y=              0.0000    Z=              0.1478  Tot=              0.5518
 N-N= 1.440469958352D+02 E-N=-2.166860000007D+02  KE=-5.048504574713D+01
 Calling FoFJK, ICntrl=      2127 FMM=F ISym2X=0 I1Cent= 0 IOpClX= 0 NMat=1 NMatS=1 NMatT=0.
 ***** Axes restored to original set *****
 -------------------------------------------------------------------
 Center     Atomic                   Forces (Hartrees/Bohr)
 Number     Number              X              Y              Z
 -------------------------------------------------------------------
      1        6          -0.000000787    0.000000905   -0.000000062
      2        6           0.000000552   -0.000000887   -0.000000020
      3        6          -0.000000462   -0.000000451   -0.000000248
      4        6           0.000000205    0.000000476    0.000000224
      5        6           0.000000884    0.000000115    0.000000243
      6        6          -0.000000648   -0.000000092    0.000000347
      7        1           0.000000047    0.000000013    0.000000005
      8        1           0.000000021   -0.000000025   -0.000000013
      9        1           0.000000059    0.000000005    0.000000033
     10        1          -0.000000056    0.000000014   -0.000000066
     11        1           0.000000002   -0.000000092    0.000000231
     12        1          -0.000000064   -0.000000017    0.000000079
     13        1          -0.000000029    0.000000037   -0.000000120
     14        1           0.000000138    0.000000057   -0.000000071
     15        1           0.000000091   -0.000000013   -0.000000217
     16        1           0.000000048   -0.000000045   -0.000000343
 -------------------------------------------------------------------
 Cartesian Forces:  Max     0.000000905 RMS     0.000000324

 GradGradGradGradGradGradGradGradGradGradGradGradGradGradGradGradGradGrad
 Berny optimization.
 FormGI is forming the generalized inverse of G from B-inverse, IUseBI=4.
 Internal  Forces:  Max     0.000000920 RMS     0.000000176
 Search for a local minimum.
 Step number   1 out of a maximum of  100
 All quantities printed in internal units (Hartrees-Bohrs-Radians)
 Mixed Optimization -- En-DIIS/RFO-DIIS
 Second derivative matrix not updated -- first step.
 ITU=  0
     Eigenvalues ---    0.00923   0.01461   0.02167   0.02294   0.02476
     Eigenvalues ---    0.03985   0.04518   0.04746   0.05045   0.05306
     Eigenvalues ---    0.05372   0.06260   0.06892   0.07032   0.07580
     Eigenvalues ---    0.07951   0.08080   0.08448   0.08709   0.08853
     Eigenvalues ---    0.09013   0.10098   0.11223   0.15683   0.15818
     Eigenvalues ---    0.19779   0.20032   0.20972   0.34851   0.34851
     Eigenvalues ---    0.35331   0.35331   0.35595   0.35595   0.35658
     Eigenvalues ---    0.35659   0.35763   0.35763   0.40884   0.45192
     Eigenvalues ---    0.46881   0.49032
 RFO step:  Lambda= 0.00000000D+00 EMin= 9.23038774D-03
 Linear search not attempted -- first point.
 Iteration  1 RMS(Cart)=  0.00000186 RMS(Int)=  0.00000000
 Iteration  2 RMS(Cart)=  0.00000000 RMS(Int)=  0.00000000
 Variable       Old X    -DE/DX   Delta X   Delta X   Delta X     New X
                                 (Linear)    (Quad)   (Total)
    R1        2.60738   0.00000   0.00000   0.00000   0.00000   2.60738
    R2        3.99625   0.00000   0.00000   0.00000   0.00000   3.99625
    R3        2.05141   0.00000   0.00000   0.00000   0.00000   2.05141
    R4        2.04454   0.00000   0.00000   0.00000   0.00000   2.04454
    R5        2.66661   0.00000   0.00000   0.00000   0.00000   2.66661
    R6        2.05918   0.00000   0.00000   0.00000   0.00000   2.05918
    R7        2.60738   0.00000   0.00000   0.00000   0.00000   2.60738
    R8        2.05918   0.00000   0.00000   0.00000   0.00000   2.05918
    R9        3.99628   0.00000   0.00000   0.00000   0.00000   3.99627
   R10        2.05141   0.00000   0.00000   0.00000   0.00000   2.05141
   R11        2.04453   0.00000   0.00000   0.00000   0.00000   2.04453
   R12        2.61114   0.00000   0.00000   0.00000   0.00000   2.61114
   R13        2.04619   0.00000   0.00000   0.00000   0.00000   2.04619
   R14        2.04720   0.00000   0.00000   0.00000   0.00000   2.04720
   R15        2.04619   0.00000   0.00000   0.00000   0.00000   2.04619
   R16        2.04720   0.00000   0.00000   0.00000   0.00000   2.04720
    A1        1.74402   0.00000   0.00000   0.00000   0.00000   1.74401
    A2        2.12521   0.00000   0.00000   0.00000   0.00000   2.12521
    A3        2.11113   0.00000   0.00000   0.00000   0.00000   2.11113
    A4        1.52537   0.00000   0.00000   0.00000   0.00000   1.52537
    A5        1.78134   0.00000   0.00000   0.00000   0.00000   1.78134
    A6        1.97862   0.00000   0.00000   0.00000   0.00000   1.97862
    A7        2.10684   0.00000   0.00000   0.00000   0.00000   2.10684
    A8        2.09686   0.00000   0.00000   0.00000   0.00000   2.09686
    A9        2.06545   0.00000   0.00000   0.00000   0.00000   2.06545
   A10        2.10684   0.00000   0.00000   0.00000   0.00000   2.10684
   A11        2.06545   0.00000   0.00000   0.00000   0.00000   2.06545
   A12        2.09686   0.00000   0.00000   0.00000   0.00000   2.09686
   A13        1.74400   0.00000   0.00000   0.00000   0.00000   1.74400
   A14        2.12521   0.00000   0.00000   0.00000   0.00000   2.12521
   A15        2.11113   0.00000   0.00000   0.00000   0.00000   2.11113
   A16        1.52537   0.00000   0.00000   0.00000   0.00000   1.52537
   A17        1.78135   0.00000   0.00000   0.00000   0.00000   1.78135
   A18        1.97862   0.00000   0.00000   0.00000   0.00000   1.97862
   A19        1.91790   0.00000   0.00000   0.00000   0.00000   1.91790
   A20        1.56400   0.00000   0.00000   0.00000   0.00000   1.56400
   A21        1.57209   0.00000   0.00000   0.00000   0.00000   1.57208
   A22        2.11013   0.00000   0.00000   0.00000   0.00000   2.11013
   A23        2.10574   0.00000   0.00000   0.00000   0.00000   2.10574
   A24        1.99325   0.00000   0.00000   0.00000   0.00000   1.99325
   A25        1.91790   0.00000   0.00000   0.00000   0.00000   1.91790
   A26        1.56401   0.00000   0.00000   0.00000   0.00000   1.56401
   A27        1.57209   0.00000   0.00000   0.00000   0.00000   1.57209
   A28        2.11013   0.00000   0.00000   0.00000   0.00000   2.11013
   A29        2.10574   0.00000   0.00000   0.00000   0.00000   2.10574
   A30        1.99324   0.00000   0.00000   0.00000   0.00000   1.99324
    D1       -1.04069   0.00000   0.00000   0.00000   0.00000  -1.04069
    D2        1.91871   0.00000   0.00000   0.00000   0.00000   1.91871
    D3        0.58426   0.00000   0.00000   0.00000   0.00000   0.58426
    D4       -2.73953   0.00000   0.00000   0.00000   0.00000  -2.73953
    D5       -2.97160   0.00000   0.00000   0.00000   0.00000  -2.97160
    D6       -0.01219   0.00000   0.00000   0.00000   0.00000  -0.01219
    D7        0.90881   0.00000   0.00000   0.00000   0.00000   0.90881
    D8        3.05444   0.00000   0.00000   0.00000   0.00000   3.05444
    D9       -1.23550   0.00000   0.00000   0.00000   0.00000  -1.23550
   D10       -1.21710   0.00000   0.00000   0.00000   0.00000  -1.21709
   D11        0.92853   0.00000   0.00000   0.00000   0.00000   0.92853
   D12        2.92177   0.00000   0.00000   0.00000   0.00000   2.92178
   D13        3.08784   0.00000   0.00000   0.00000   0.00000   3.08785
   D14       -1.04971   0.00000   0.00000   0.00000   0.00000  -1.04971
   D15        0.94353   0.00000   0.00000   0.00000   0.00000   0.94353
   D16       -0.00001   0.00000   0.00000   0.00000   0.00000   0.00000
   D17        2.96261   0.00000   0.00000   0.00000   0.00000   2.96261
   D18       -2.96262   0.00000   0.00000   0.00000   0.00000  -2.96262
   D19        0.00000   0.00000   0.00000   0.00000   0.00000   0.00000
   D20        1.04069   0.00000   0.00000   0.00000   0.00000   1.04069
   D21       -0.58425   0.00000   0.00000   0.00000   0.00000  -0.58425
   D22        2.97159   0.00000   0.00000   0.00000   0.00000   2.97159
   D23       -1.91871   0.00000   0.00000   0.00000   0.00000  -1.91872
   D24        2.73953   0.00000   0.00000   0.00000   0.00000   2.73954
   D25        0.01219   0.00000   0.00000   0.00000   0.00000   0.01219
   D26       -0.90883   0.00000   0.00000   0.00000   0.00000  -0.90883
   D27       -3.05446   0.00000   0.00000   0.00000   0.00000  -3.05445
   D28        1.23548   0.00000   0.00000   0.00000   0.00000   1.23548
   D29        1.21708   0.00000   0.00000   0.00000   0.00000   1.21708
   D30       -0.92855   0.00000   0.00000   0.00000   0.00000  -0.92855
   D31       -2.92180   0.00000   0.00000   0.00000   0.00000  -2.92179
   D32       -3.08786   0.00000   0.00000   0.00000   0.00000  -3.08786
   D33        1.04970   0.00000   0.00000   0.00000   0.00000   1.04970
   D34       -0.94355   0.00000   0.00000   0.00000   0.00000  -0.94355
   D35        0.00001   0.00000   0.00000   0.00000   0.00000   0.00001
   D36       -1.78042   0.00000   0.00000   0.00000   0.00000  -1.78042
   D37        1.78848   0.00000   0.00000   0.00000   0.00000   1.78848
   D38        1.78044   0.00000   0.00000   0.00000   0.00000   1.78043
   D39        0.00000   0.00000   0.00000   0.00000   0.00000   0.00000
   D40       -2.71428   0.00000   0.00000   0.00000   0.00000  -2.71428
   D41       -1.78846   0.00000   0.00000   0.00000   0.00000  -1.78846
   D42        2.71429   0.00000   0.00000   0.00000   0.00000   2.71429
   D43        0.00002   0.00000   0.00000   0.00000   0.00000   0.00001
         Item               Value     Threshold  Converged?
 Maximum Force            0.000001     0.000450     YES
 RMS     Force            0.000000     0.000300     YES
 Maximum Displacement     0.000008     0.001800     YES
 RMS     Displacement     0.000002     0.001200     YES
 Predicted change in Energy=-6.724156D-12
 Optimization completed.
    -- Stationary point found.
                           ----------------------------
                           !   Optimized Parameters   !
                           ! (Angstroms and Degrees)  !
 --------------------------                            --------------------------
 ! Name  Definition              Value          Derivative Info.                !
 --------------------------------------------------------------------------------
 ! R1    R(1,2)                  1.3798         -DE/DX =    0.0                 !
 ! R2    R(1,6)                  2.1147         -DE/DX =    0.0                 !
 ! R3    R(1,7)                  1.0856         -DE/DX =    0.0                 !
 ! R4    R(1,8)                  1.0819         -DE/DX =    0.0                 !
 ! R5    R(2,3)                  1.4111         -DE/DX =    0.0                 !
 ! R6    R(2,9)                  1.0897         -DE/DX =    0.0                 !
 ! R7    R(3,4)                  1.3798         -DE/DX =    0.0                 !
 ! R8    R(3,10)                 1.0897         -DE/DX =    0.0                 !
 ! R9    R(4,5)                  2.1147         -DE/DX =    0.0                 !
 ! R10   R(4,11)                 1.0856         -DE/DX =    0.0                 !
 ! R11   R(4,12)                 1.0819         -DE/DX =    0.0                 !
 ! R12   R(5,6)                  1.3818         -DE/DX =    0.0                 !
 ! R13   R(5,13)                 1.0828         -DE/DX =    0.0                 !
 ! R14   R(5,14)                 1.0833         -DE/DX =    0.0                 !
 ! R15   R(6,15)                 1.0828         -DE/DX =    0.0                 !
 ! R16   R(6,16)                 1.0833         -DE/DX =    0.0                 !
 ! A1    A(2,1,6)               99.9248         -DE/DX =    0.0                 !
 ! A2    A(2,1,7)              121.7653         -DE/DX =    0.0                 !
 ! A3    A(2,1,8)              120.9586         -DE/DX =    0.0                 !
 ! A4    A(6,1,7)               87.3975         -DE/DX =    0.0                 !
 ! A5    A(6,1,8)              102.0633         -DE/DX =    0.0                 !
 ! A6    A(7,1,8)              113.3663         -DE/DX =    0.0                 !
 ! A7    A(1,2,3)              120.7131         -DE/DX =    0.0                 !
 ! A8    A(1,2,9)              120.141          -DE/DX =    0.0                 !
 ! A9    A(3,2,9)              118.3418         -DE/DX =    0.0                 !
 ! A10   A(2,3,4)              120.7131         -DE/DX =    0.0                 !
 ! A11   A(2,3,10)             118.3418         -DE/DX =    0.0                 !
 ! A12   A(4,3,10)             120.141          -DE/DX =    0.0                 !
 ! A13   A(3,4,5)               99.924          -DE/DX =    0.0                 !
 ! A14   A(3,4,11)             121.7654         -DE/DX =    0.0                 !
 ! A15   A(3,4,12)             120.9587         -DE/DX =    0.0                 !
 ! A16   A(5,4,11)              87.3974         -DE/DX =    0.0                 !
 ! A17   A(5,4,12)             102.0636         -DE/DX =    0.0                 !
 ! A18   A(11,4,12)            113.3664         -DE/DX =    0.0                 !
 ! A19   A(4,5,6)              109.8876         -DE/DX =    0.0                 !
 ! A20   A(4,5,13)              89.6106         -DE/DX =    0.0                 !
 ! A21   A(4,5,14)              90.0739         -DE/DX =    0.0                 !
 ! A22   A(6,5,13)             120.9016         -DE/DX =    0.0                 !
 ! A23   A(6,5,14)             120.6499         -DE/DX =    0.0                 !
 ! A24   A(13,5,14)            114.2046         -DE/DX =    0.0                 !
 ! A25   A(1,6,5)              109.8873         -DE/DX =    0.0                 !
 ! A26   A(1,6,15)              89.6114         -DE/DX =    0.0                 !
 ! A27   A(1,6,16)              90.0742         -DE/DX =    0.0                 !
 ! A28   A(5,6,15)             120.9015         -DE/DX =    0.0                 !
 ! A29   A(5,6,16)             120.65           -DE/DX =    0.0                 !
 ! A30   A(15,6,16)            114.2044         -DE/DX =    0.0                 !
 ! D1    D(6,1,2,3)            -59.6271         -DE/DX =    0.0                 !
 ! D2    D(6,1,2,9)            109.9342         -DE/DX =    0.0                 !
 ! D3    D(7,1,2,3)             33.4755         -DE/DX =    0.0                 !
 ! D4    D(7,1,2,9)           -156.9633         -DE/DX =    0.0                 !
 ! D5    D(8,1,2,3)           -170.2599         -DE/DX =    0.0                 !
 ! D6    D(8,1,2,9)             -0.6986         -DE/DX =    0.0                 !
 ! D7    D(2,1,6,5)             52.0711         -DE/DX =    0.0                 !
 ! D8    D(2,1,6,15)           175.0064         -DE/DX =    0.0                 !
 ! D9    D(2,1,6,16)           -70.7891         -DE/DX =    0.0                 !
 ! D10   D(7,1,6,5)            -69.7345         -DE/DX =    0.0                 !
 ! D11   D(7,1,6,15)            53.2009         -DE/DX =    0.0                 !
 ! D12   D(7,1,6,16)           167.4054         -DE/DX =    0.0                 !
 ! D13   D(8,1,6,5)            176.9204         -DE/DX =    0.0                 !
 ! D14   D(8,1,6,15)           -60.1442         -DE/DX =    0.0                 !
 ! D15   D(8,1,6,16)            54.0602         -DE/DX =    0.0                 !
 ! D16   D(1,2,3,4)             -0.0003         -DE/DX =    0.0                 !
 ! D17   D(1,2,3,10)           169.7449         -DE/DX =    0.0                 !
 ! D18   D(9,2,3,4)           -169.7455         -DE/DX =    0.0                 !
 ! D19   D(9,2,3,10)            -0.0002         -DE/DX =    0.0                 !
 ! D20   D(2,3,4,5)             59.6272         -DE/DX =    0.0                 !
 ! D21   D(2,3,4,11)           -33.4749         -DE/DX =    0.0                 !
 ! D22   D(2,3,4,12)           170.2598         -DE/DX =    0.0                 !
 ! D23   D(10,3,4,5)          -109.9342         -DE/DX =    0.0                 !
 ! D24   D(10,3,4,11)          156.9638         -DE/DX =    0.0                 !
 ! D25   D(10,3,4,12)            0.6984         -DE/DX =    0.0                 !
 ! D26   D(3,4,5,6)            -52.0723         -DE/DX =    0.0                 !
 ! D27   D(3,4,5,13)          -175.0075         -DE/DX =    0.0                 !
 ! D28   D(3,4,5,14)            70.7878         -DE/DX =    0.0                 !
 ! D29   D(11,4,5,6)            69.7333         -DE/DX =    0.0                 !
 ! D30   D(11,4,5,13)          -53.2019         -DE/DX =    0.0                 !
 ! D31   D(11,4,5,14)         -167.4066         -DE/DX =    0.0                 !
 ! D32   D(12,4,5,6)          -176.9215         -DE/DX =    0.0                 !
 ! D33   D(12,4,5,13)           60.1433         -DE/DX =    0.0                 !
 ! D34   D(12,4,5,14)          -54.0614         -DE/DX =    0.0                 !
 ! D35   D(4,5,6,1)              0.0007         -DE/DX =    0.0                 !
 ! D36   D(4,5,6,15)          -102.0108         -DE/DX =    0.0                 !
 ! D37   D(4,5,6,16)           102.4726         -DE/DX =    0.0                 !
 ! D38   D(13,5,6,1)           102.0114         -DE/DX =    0.0                 !
 ! D39   D(13,5,6,15)           -0.0001         -DE/DX =    0.0                 !
 ! D40   D(13,5,6,16)         -155.5166         -DE/DX =    0.0                 !
 ! D41   D(14,5,6,1)          -102.471          -DE/DX =    0.0                 !
 ! D42   D(14,5,6,15)          155.5175         -DE/DX =    0.0                 !
 ! D43   D(14,5,6,16)            0.0009         -DE/DX =    0.0                 !
 --------------------------------------------------------------------------------
 GradGradGradGradGradGradGradGradGradGradGradGradGradGradGradGradGradGrad

                          Input orientation:                          
 ---------------------------------------------------------------------
 Center     Atomic      Atomic             Coordinates (Angstroms)
 Number     Number       Type             X           Y           Z
 ---------------------------------------------------------------------
      1          6           0       -0.671785    0.954106    0.107729
      2          6           0        0.033912   -0.173215   -0.259543
      3          6           0        1.445002   -0.174244   -0.252590
      4          6           0        2.148689    0.952052    0.121619
      5          6           0        1.419769    1.199528    2.091276
      6          6           0        0.038030    1.200546    2.084465
      7          1           0       -0.300047    1.953155   -0.097574
      8          1           0       -1.742966    0.916721    0.255136
      9          1           0       -0.483418   -1.122656   -0.394863
     10          1           0        1.962256   -1.124439   -0.382809
     11          1           0        1.780446    1.951639   -0.087327
     12          1           0        3.218309    0.913108    0.279577
     13          1           0        1.976141    2.124848    2.173014
     14          1           0        1.969846    0.321164    2.406707
     15          1           0       -0.517756    2.126687    2.160721
     16          1           0       -0.516425    0.323000    2.394464
 ---------------------------------------------------------------------
                    Distance matrix (angstroms):
                    1          2          3          4          5
     1  C    0.000000
     2  C    1.379765   0.000000
     3  C    2.425653   1.411107   0.000000
     4  C    2.820509   2.425653   1.379765   0.000000
     5  C    2.892972   3.054729   2.716909   2.114738   0.000000
     6  C    2.114723   2.716911   3.054741   2.892991   1.381756
     7  H    1.085558   2.158521   2.755912   2.654536   2.883884
     8  H    1.081922   2.147126   3.407511   3.894105   3.668008
     9  H    2.144999   1.089669   2.153725   3.391040   3.898147
    10  H    3.391040   2.153725   1.089669   2.144999   3.437472
    11  H    2.654535   2.755911   2.158521   1.085558   2.332825
    12  H    3.894104   3.407511   2.147127   1.081921   2.568859
    13  H    3.556339   3.869196   3.384005   2.369271   1.082797
    14  H    3.558669   3.331837   2.755494   2.377315   1.083330
    15  H    2.369271   3.384016   3.869208   3.556351   2.149058
    16  H    2.377307   2.755513   3.331868   3.558702   2.146874
                    6          7          8          9         10
     6  C    0.000000
     7  H    2.332812   0.000000
     8  H    2.568841   1.811247   0.000000
     9  H    3.437476   3.095580   2.483549   0.000000
    10  H    3.898159   3.830269   4.278081   2.445704   0.000000
    11  H    2.883892   2.080519   3.688193   3.830267   3.095581
    12  H    3.668026   3.688193   4.961336   4.278082   2.483551
    13  H    2.149058   3.219640   4.355408   4.815569   4.134041
    14  H    2.146874   3.753296   4.332311   3.993985   3.141851
    15  H    1.082797   2.275392   2.568347   4.134055   4.815582
    16  H    1.083331   2.985712   2.536460   3.141872   3.994019
                   11         12         13         14         15
    11  H    0.000000
    12  H    1.811247   0.000000
    13  H    2.275399   2.568345   0.000000
    14  H    2.985720   2.536481   1.818771   0.000000
    15  H    3.219642   4.355417   2.493929   3.083599   0.000000
    16  H    3.753314   4.332345   3.083599   2.486302   1.818769
                   16
    16  H    0.000000
 Stoichiometry    C6H10
 Framework group  C1[X(C6H10)]
 Deg. of freedom    42
 Full point group                 C1      NOp   1
 Largest Abelian subgroup         C1      NOp   1
 Largest concise Abelian subgroup C1      NOp   1
                         Standard orientation:                         
 ---------------------------------------------------------------------
 Center     Atomic      Atomic             Coordinates (Angstroms)
 Number     Number       Type             X           Y           Z
 ---------------------------------------------------------------------
      1          6           0        0.379545    1.410275    0.509719
      2          6           0        1.260179    0.705630   -0.285084
      3          6           0        1.260268   -0.705477   -0.285085
      4          6           0        0.379730   -1.410235    0.509722
      5          6           0       -1.456424   -0.690964   -0.254022
      6          6           0       -1.456514    0.690793   -0.254010
      7          1           0        0.064050    1.040260    1.480281
      8          1           0        0.265797    2.480681    0.400883
      9          1           0        1.846319    1.222967   -1.044151
     10          1           0        1.846472   -1.222738   -1.044155
     11          1           0        0.064185   -1.040258    1.480282
     12          1           0        0.266114   -2.480655    0.400885
     13          1           0       -1.983917   -1.247092    0.510780
     14          1           0       -1.292729   -1.243218   -1.171532
     15          1           0       -1.984081    1.246837    0.510802
     16          1           0       -1.292906    1.243084   -1.171513
 ---------------------------------------------------------------------
 Rotational constants (GHZ):           4.3991522           3.8661934           2.4556562
 Unable to Open any file for archive entry.
 1|1|UNPC-SKCH-134-024|FOpt|RPM6|ZDO|C6H10|AL6323|11-Nov-2025|0||# freq
  pm6 opt=(maxcycles=200,noeigen) scf=(xqc,tight)||TS (Berny)||0,1|C,-0
 .67178524,0.95410643,0.10772943|C,0.03391228,-0.17321529,-0.25954267|C
 ,1.44500207,-0.17424395,-0.25259006|C,2.14868908,0.95205205,0.12161926
 |C,1.41976873,1.19952817,2.09127618|C,0.03802951,1.20054581,2.08446463
 |H,-0.30004715,1.95315496,-0.09757422|H,-1.74296589,0.91672115,0.25513
 643|H,-0.48341816,-1.12265555,-0.39486339|H,1.96225598,-1.12443909,-0.
 38280937|H,1.78044573,1.95163927,-0.08732713|H,3.21830878,0.91310848,0
 .27957717|H,1.97614115,2.12484809,2.17301391|H,1.96984614,0.32116444,2
 .40670667|H,-0.51775642,2.12668654,2.16072091|H,-0.51642489,0.32300027
 ,2.39446407||Version=EM64W-G16RevC.01|State=1-A|HF=0.11286|RMSD=1.755e
 -009|RMSF=3.241e-007|Dipole=-0.0006431,0.1541881,0.152836|PG=C01 [X(C6
 H10)]||@
 The archive entry for this job was punched.


 THEREFORE SHALL EVIL COME UPON THEE...
 THOU SHALT NOT KNOW FROM WHENCE IT RISETH...
 AND MISCHIEF SHALL FALL UPON THEE...
 THOU SHALT NOT BE ABLE TO PUT IT OFF...
 AND DESOLATION SHALL COME UPON THEE SUDDENLY...
 WHICH THOU SHALT NOT KNOW...

                                         ISAIAH 47.11
 Job cpu time:       0 days  0 hours  0 minutes  5.0 seconds.
 Elapsed time:       0 days  0 hours  0 minutes  3.0 seconds.
 File lengths (MBytes):  RWF=      6 Int=      0 D2E=      0 Chk=      2 Scr=      1
 Normal termination of Gaussian 16 at Tue Nov 11 22:31:46 2025.
 Link1:  Proceeding to internal job step number  2.
 -------------------------------------------------------------
 #N Geom=AllCheck Guess=TCheck SCRF=Check GenChk RPM6/ZDO Freq
 -------------------------------------------------------------
 1/6=200,10=4,11=1,29=7,30=1,38=1,40=1/1,3;
 2/12=2,40=1/2;
 3/5=2,14=-4,25=1,41=3900000,70=2,71=2,116=1,135=40,140=1/1,2,3;
 4/5=101,35=1/1;
 5/5=2,8=3,13=1,32=2,35=1,38=6,98=1/2,8;
 8/6=4,10=90,11=11/1;
 11/6=1,8=1,9=11,15=111,16=1/1,2,10;
 10/6=1/2;
 6/7=2,8=2,9=2,10=2,28=1/1;
 7/8=1,10=1,25=1/1,2,3,16;
 1/6=200,10=4,11=1,30=1/3;
 99//99;
 Structure from the checkpoint file:  "C:\Users\al6323\OneDrive - Imperial College London\Desktop\TSR20251111\TS_guess_opt_TS(Berny)_Check.chk"
 ----------
 TS (Berny)
 ----------
 Charge =  0 Multiplicity = 1
 Redundant internal coordinates found in file.  (old form).
 C,0,-0.67178524,0.95410643,0.10772943
 C,0,0.03391228,-0.17321529,-0.25954267
 C,0,1.44500207,-0.17424395,-0.25259006
 C,0,2.14868908,0.95205205,0.12161926
 C,0,1.41976873,1.19952817,2.09127618
 C,0,0.03802951,1.20054581,2.08446463
 H,0,-0.30004715,1.95315496,-0.09757422
 H,0,-1.74296589,0.91672115,0.25513643
 H,0,-0.48341816,-1.12265555,-0.39486339
 H,0,1.96225598,-1.12443909,-0.38280937
 H,0,1.78044573,1.95163927,-0.08732713
 H,0,3.21830878,0.91310848,0.27957717
 H,0,1.97614115,2.12484809,2.17301391
 H,0,1.96984614,0.32116444,2.40670667
 H,0,-0.51775642,2.12668654,2.16072091
 H,0,-0.51642489,0.32300027,2.39446407
 Recover connectivity data from disk.

 GradGradGradGradGradGradGradGradGradGradGradGradGradGradGradGradGradGrad
 Berny optimization.
 Initialization pass.
                           ----------------------------
                           !    Initial Parameters    !
                           ! (Angstroms and Degrees)  !
 --------------------------                            --------------------------
 ! Name  Definition              Value          Derivative Info.                !
 --------------------------------------------------------------------------------
 ! R1    R(1,2)                  1.3798         calculate D2E/DX2 analytically  !
 ! R2    R(1,6)                  2.1147         calculate D2E/DX2 analytically  !
 ! R3    R(1,7)                  1.0856         calculate D2E/DX2 analytically  !
 ! R4    R(1,8)                  1.0819         calculate D2E/DX2 analytically  !
 ! R5    R(2,3)                  1.4111         calculate D2E/DX2 analytically  !
 ! R6    R(2,9)                  1.0897         calculate D2E/DX2 analytically  !
 ! R7    R(3,4)                  1.3798         calculate D2E/DX2 analytically  !
 ! R8    R(3,10)                 1.0897         calculate D2E/DX2 analytically  !
 ! R9    R(4,5)                  2.1147         calculate D2E/DX2 analytically  !
 ! R10   R(4,11)                 1.0856         calculate D2E/DX2 analytically  !
 ! R11   R(4,12)                 1.0819         calculate D2E/DX2 analytically  !
 ! R12   R(5,6)                  1.3818         calculate D2E/DX2 analytically  !
 ! R13   R(5,13)                 1.0828         calculate D2E/DX2 analytically  !
 ! R14   R(5,14)                 1.0833         calculate D2E/DX2 analytically  !
 ! R15   R(6,15)                 1.0828         calculate D2E/DX2 analytically  !
 ! R16   R(6,16)                 1.0833         calculate D2E/DX2 analytically  !
 ! A1    A(2,1,6)               99.9248         calculate D2E/DX2 analytically  !
 ! A2    A(2,1,7)              121.7653         calculate D2E/DX2 analytically  !
 ! A3    A(2,1,8)              120.9586         calculate D2E/DX2 analytically  !
 ! A4    A(6,1,7)               87.3975         calculate D2E/DX2 analytically  !
 ! A5    A(6,1,8)              102.0633         calculate D2E/DX2 analytically  !
 ! A6    A(7,1,8)              113.3663         calculate D2E/DX2 analytically  !
 ! A7    A(1,2,3)              120.7131         calculate D2E/DX2 analytically  !
 ! A8    A(1,2,9)              120.141          calculate D2E/DX2 analytically  !
 ! A9    A(3,2,9)              118.3418         calculate D2E/DX2 analytically  !
 ! A10   A(2,3,4)              120.7131         calculate D2E/DX2 analytically  !
 ! A11   A(2,3,10)             118.3418         calculate D2E/DX2 analytically  !
 ! A12   A(4,3,10)             120.141          calculate D2E/DX2 analytically  !
 ! A13   A(3,4,5)               99.924          calculate D2E/DX2 analytically  !
 ! A14   A(3,4,11)             121.7654         calculate D2E/DX2 analytically  !
 ! A15   A(3,4,12)             120.9587         calculate D2E/DX2 analytically  !
 ! A16   A(5,4,11)              87.3974         calculate D2E/DX2 analytically  !
 ! A17   A(5,4,12)             102.0636         calculate D2E/DX2 analytically  !
 ! A18   A(11,4,12)            113.3664         calculate D2E/DX2 analytically  !
 ! A19   A(4,5,6)              109.8876         calculate D2E/DX2 analytically  !
 ! A20   A(4,5,13)              89.6106         calculate D2E/DX2 analytically  !
 ! A21   A(4,5,14)              90.0739         calculate D2E/DX2 analytically  !
 ! A22   A(6,5,13)             120.9016         calculate D2E/DX2 analytically  !
 ! A23   A(6,5,14)             120.6499         calculate D2E/DX2 analytically  !
 ! A24   A(13,5,14)            114.2046         calculate D2E/DX2 analytically  !
 ! A25   A(1,6,5)              109.8873         calculate D2E/DX2 analytically  !
 ! A26   A(1,6,15)              89.6114         calculate D2E/DX2 analytically  !
 ! A27   A(1,6,16)              90.0742         calculate D2E/DX2 analytically  !
 ! A28   A(5,6,15)             120.9015         calculate D2E/DX2 analytically  !
 ! A29   A(5,6,16)             120.65           calculate D2E/DX2 analytically  !
 ! A30   A(15,6,16)            114.2044         calculate D2E/DX2 analytically  !
 ! D1    D(6,1,2,3)            -59.6271         calculate D2E/DX2 analytically  !
 ! D2    D(6,1,2,9)            109.9342         calculate D2E/DX2 analytically  !
 ! D3    D(7,1,2,3)             33.4755         calculate D2E/DX2 analytically  !
 ! D4    D(7,1,2,9)           -156.9633         calculate D2E/DX2 analytically  !
 ! D5    D(8,1,2,3)           -170.2599         calculate D2E/DX2 analytically  !
 ! D6    D(8,1,2,9)             -0.6986         calculate D2E/DX2 analytically  !
 ! D7    D(2,1,6,5)             52.0711         calculate D2E/DX2 analytically  !
 ! D8    D(2,1,6,15)           175.0064         calculate D2E/DX2 analytically  !
 ! D9    D(2,1,6,16)           -70.7891         calculate D2E/DX2 analytically  !
 ! D10   D(7,1,6,5)            -69.7345         calculate D2E/DX2 analytically  !
 ! D11   D(7,1,6,15)            53.2009         calculate D2E/DX2 analytically  !
 ! D12   D(7,1,6,16)           167.4054         calculate D2E/DX2 analytically  !
 ! D13   D(8,1,6,5)            176.9204         calculate D2E/DX2 analytically  !
 ! D14   D(8,1,6,15)           -60.1442         calculate D2E/DX2 analytically  !
 ! D15   D(8,1,6,16)            54.0602         calculate D2E/DX2 analytically  !
 ! D16   D(1,2,3,4)             -0.0003         calculate D2E/DX2 analytically  !
 ! D17   D(1,2,3,10)           169.7449         calculate D2E/DX2 analytically  !
 ! D18   D(9,2,3,4)           -169.7455         calculate D2E/DX2 analytically  !
 ! D19   D(9,2,3,10)            -0.0002         calculate D2E/DX2 analytically  !
 ! D20   D(2,3,4,5)             59.6272         calculate D2E/DX2 analytically  !
 ! D21   D(2,3,4,11)           -33.4749         calculate D2E/DX2 analytically  !
 ! D22   D(2,3,4,12)           170.2598         calculate D2E/DX2 analytically  !
 ! D23   D(10,3,4,5)          -109.9342         calculate D2E/DX2 analytically  !
 ! D24   D(10,3,4,11)          156.9638         calculate D2E/DX2 analytically  !
 ! D25   D(10,3,4,12)            0.6984         calculate D2E/DX2 analytically  !
 ! D26   D(3,4,5,6)            -52.0723         calculate D2E/DX2 analytically  !
 ! D27   D(3,4,5,13)          -175.0075         calculate D2E/DX2 analytically  !
 ! D28   D(3,4,5,14)            70.7878         calculate D2E/DX2 analytically  !
 ! D29   D(11,4,5,6)            69.7333         calculate D2E/DX2 analytically  !
 ! D30   D(11,4,5,13)          -53.2019         calculate D2E/DX2 analytically  !
 ! D31   D(11,4,5,14)         -167.4066         calculate D2E/DX2 analytically  !
 ! D32   D(12,4,5,6)          -176.9215         calculate D2E/DX2 analytically  !
 ! D33   D(12,4,5,13)           60.1433         calculate D2E/DX2 analytically  !
 ! D34   D(12,4,5,14)          -54.0614         calculate D2E/DX2 analytically  !
 ! D35   D(4,5,6,1)              0.0007         calculate D2E/DX2 analytically  !
 ! D36   D(4,5,6,15)          -102.0108         calculate D2E/DX2 analytically  !
 ! D37   D(4,5,6,16)           102.4726         calculate D2E/DX2 analytically  !
 ! D38   D(13,5,6,1)           102.0114         calculate D2E/DX2 analytically  !
 ! D39   D(13,5,6,15)           -0.0001         calculate D2E/DX2 analytically  !
 ! D40   D(13,5,6,16)         -155.5166         calculate D2E/DX2 analytically  !
 ! D41   D(14,5,6,1)          -102.471          calculate D2E/DX2 analytically  !
 ! D42   D(14,5,6,15)          155.5175         calculate D2E/DX2 analytically  !
 ! D43   D(14,5,6,16)            0.0009         calculate D2E/DX2 analytically  !
 --------------------------------------------------------------------------------
 Trust Radius=3.00D-01 FncErr=1.00D-07 GrdErr=1.00D-07 EigMax=2.50D+02 EigMin=1.00D-04
 Number of steps in this run=      2 maximum allowed number of steps=      2.
 GradGradGradGradGradGradGradGradGradGradGradGradGradGradGradGradGradGrad

                          Input orientation:                          
 ---------------------------------------------------------------------
 Center     Atomic      Atomic             Coordinates (Angstroms)
 Number     Number       Type             X           Y           Z
 ---------------------------------------------------------------------
      1          6           0       -0.671785    0.954106    0.107729
      2          6           0        0.033912   -0.173215   -0.259543
      3          6           0        1.445002   -0.174244   -0.252590
      4          6           0        2.148689    0.952052    0.121619
      5          6           0        1.419769    1.199528    2.091276
      6          6           0        0.038030    1.200546    2.084465
      7          1           0       -0.300047    1.953155   -0.097574
      8          1           0       -1.742966    0.916721    0.255136
      9          1           0       -0.483418   -1.122656   -0.394863
     10          1           0        1.962256   -1.124439   -0.382809
     11          1           0        1.780446    1.951639   -0.087327
     12          1           0        3.218309    0.913108    0.279577
     13          1           0        1.976141    2.124848    2.173014
     14          1           0        1.969846    0.321164    2.406707
     15          1           0       -0.517756    2.126687    2.160721
     16          1           0       -0.516425    0.323000    2.394464
 ---------------------------------------------------------------------
                    Distance matrix (angstroms):
                    1          2          3          4          5
     1  C    0.000000
     2  C    1.379765   0.000000
     3  C    2.425653   1.411107   0.000000
     4  C    2.820509   2.425653   1.379765   0.000000
     5  C    2.892972   3.054729   2.716909   2.114738   0.000000
     6  C    2.114723   2.716911   3.054741   2.892991   1.381756
     7  H    1.085558   2.158521   2.755912   2.654536   2.883884
     8  H    1.081922   2.147126   3.407511   3.894105   3.668008
     9  H    2.144999   1.089669   2.153725   3.391040   3.898147
    10  H    3.391040   2.153725   1.089669   2.144999   3.437472
    11  H    2.654535   2.755911   2.158521   1.085558   2.332825
    12  H    3.894104   3.407511   2.147127   1.081921   2.568859
    13  H    3.556339   3.869196   3.384005   2.369271   1.082797
    14  H    3.558669   3.331837   2.755494   2.377315   1.083330
    15  H    2.369271   3.384016   3.869208   3.556351   2.149058
    16  H    2.377307   2.755513   3.331868   3.558702   2.146874
                    6          7          8          9         10
     6  C    0.000000
     7  H    2.332812   0.000000
     8  H    2.568841   1.811247   0.000000
     9  H    3.437476   3.095580   2.483549   0.000000
    10  H    3.898159   3.830269   4.278081   2.445704   0.000000
    11  H    2.883892   2.080519   3.688193   3.830267   3.095581
    12  H    3.668026   3.688193   4.961336   4.278082   2.483551
    13  H    2.149058   3.219640   4.355408   4.815569   4.134041
    14  H    2.146874   3.753296   4.332311   3.993985   3.141851
    15  H    1.082797   2.275392   2.568347   4.134055   4.815582
    16  H    1.083331   2.985712   2.536460   3.141872   3.994019
                   11         12         13         14         15
    11  H    0.000000
    12  H    1.811247   0.000000
    13  H    2.275399   2.568345   0.000000
    14  H    2.985720   2.536481   1.818771   0.000000
    15  H    3.219642   4.355417   2.493929   3.083599   0.000000
    16  H    3.753314   4.332345   3.083599   2.486302   1.818769
                   16
    16  H    0.000000
 Stoichiometry    C6H10
 Framework group  C1[X(C6H10)]
 Deg. of freedom    42
 Full point group                 C1      NOp   1
 Largest Abelian subgroup         C1      NOp   1
 Largest concise Abelian subgroup C1      NOp   1
                         Standard orientation:                         
 ---------------------------------------------------------------------
 Center     Atomic      Atomic             Coordinates (Angstroms)
 Number     Number       Type             X           Y           Z
 ---------------------------------------------------------------------
      1          6           0        0.379545    1.410275    0.509719
      2          6           0        1.260179    0.705630   -0.285084
      3          6           0        1.260268   -0.705477   -0.285085
      4          6           0        0.379730   -1.410235    0.509722
      5          6           0       -1.456424   -0.690964   -0.254022
      6          6           0       -1.456514    0.690793   -0.254010
      7          1           0        0.064050    1.040260    1.480281
      8          1           0        0.265797    2.480681    0.400883
      9          1           0        1.846319    1.222967   -1.044151
     10          1           0        1.846472   -1.222738   -1.044155
     11          1           0        0.064185   -1.040258    1.480282
     12          1           0        0.266114   -2.480655    0.400885
     13          1           0       -1.983917   -1.247092    0.510780
     14          1           0       -1.292729   -1.243218   -1.171532
     15          1           0       -1.984081    1.246837    0.510802
     16          1           0       -1.292906    1.243084   -1.171513
 ---------------------------------------------------------------------
 Rotational constants (GHZ):           4.3991522           3.8661934           2.4556562
 Standard basis: VSTO-6G (5D, 7F)
 There are    34 symmetry adapted cartesian basis functions of A   symmetry.
 There are    34 symmetry adapted basis functions of A   symmetry.
    34 basis functions,   204 primitive gaussians,    34 cartesian basis functions
    17 alpha electrons       17 beta electrons
       nuclear repulsion energy       144.0469958352 Hartrees.
 Integral buffers will be    131072 words long.
 Regular integral format.
 Two-electron integral symmetry is turned off.
 Do NDO integrals.
 One-electron integrals computed using PRISM.
 NBasis=    34 RedAO= F EigKep=  0.00D+00  NBF=    34
 NBsUse=    34 1.00D-04 EigRej=  0.00D+00 NBFU=    34
 Initial guess from the checkpoint file:  "C:\Users\al6323\OneDrive - Imperial College London\Desktop\TSR20251111\TS_guess_opt_TS(Berny)_Check.chk"
 B after Tr=     0.000000    0.000000    0.000000
         Rot=    1.000000    0.000000    0.000000    0.000000 Ang=   0.00 deg.
 Keep J ints in memory in canonical form, NReq=862326.
 Overlap will be assumed to be unity.
 Requested convergence on RMS density matrix=1.00D-08 within  32 cycles.
 Requested convergence on MAX density matrix=1.00D-06.
 Requested convergence on             energy=1.00D-06.
 No special actions if energy rises.
 SCF Done:  E(RPM6) =  0.112859952917     A.U. after    2 cycles
            NFock=  1  Conv=0.19D-09     -V/T= 1.0022
 QCSCF skips out because SCF is already converged.
 Range of M.O.s used for correlation:     1    34
 NBasis=    34 NAE=    17 NBE=    17 NFC=     0 NFV=     0
 NROrb=     34 NOA=    17 NOB=    17 NVA=    17 NVB=    17
 Symmetrizing basis deriv contribution to polar:
 IMax=3 JMax=2 DiffMx= 0.00D+00
 G2DrvN: will do    17 centers at a time, making    1 passes.
 Calling FoFCou, ICntrl=  3107 FMM=F I1Cent=   0 AccDes= 0.00D+00.
 End of G2Drv F.D. properties file   721 does not exist.
 End of G2Drv F.D. properties file   722 does not exist.
 End of G2Drv F.D. properties file   788 does not exist.
          IDoAtm=1111111111111111
          Differentiating once with respect to electric field.
                with respect to dipole field.
          Differentiating once with respect to nuclear coordinates.
          Electric field/nuclear overlap derivatives assumed to be zero.
 Keep J ints in memory in canonical form, NReq=863993.
          There are    51 degrees of freedom in the 1st order CPHF.  IDoFFX=5 NUNeed=    51.
 LinEq1:  Iter=  0 NonCon=    51 RMS=3.53D-01 Max=3.92D+00 NDo=    51
 AX will form    51 AO Fock derivatives at one time.
 LinEq1:  Iter=  1 NonCon=    51 RMS=4.29D-02 Max=2.20D-01 NDo=    51
 LinEq1:  Iter=  2 NonCon=    51 RMS=4.89D-03 Max=3.27D-02 NDo=    51
 LinEq1:  Iter=  3 NonCon=    51 RMS=9.41D-04 Max=8.91D-03 NDo=    51
 LinEq1:  Iter=  4 NonCon=    51 RMS=1.67D-04 Max=1.21D-03 NDo=    51
 LinEq1:  Iter=  5 NonCon=    51 RMS=1.69D-05 Max=1.10D-04 NDo=    51
 LinEq1:  Iter=  6 NonCon=    51 RMS=2.45D-06 Max=1.11D-05 NDo=    51
 LinEq1:  Iter=  7 NonCon=    51 RMS=3.47D-07 Max=1.94D-06 NDo=    51
 LinEq1:  Iter=  8 NonCon=    19 RMS=3.96D-08 Max=1.65D-07 NDo=    51
 LinEq1:  Iter=  9 NonCon=     0 RMS=4.68D-09 Max=2.64D-08 NDo=    19
 Linear equations converged to 1.000D-08 1.000D-07 after     9 iterations.
 Isotropic polarizability for W=    0.000000       54.49 Bohr**3.
 End of Minotr F.D. properties file   721 does not exist.
 End of Minotr F.D. properties file   722 does not exist.
 End of Minotr F.D. properties file   788 does not exist.

 **********************************************************************

            Population analysis using the SCF Density.

 **********************************************************************

 Orbital symmetries:
       Occupied  (A) (A) (A) (A) (A) (A) (A) (A) (A) (A) (A) (A)
                 (A) (A) (A) (A) (A)
       Virtual   (A) (A) (A) (A) (A) (A) (A) (A) (A) (A) (A) (A)
                 (A) (A) (A) (A) (A)
 The electronic state is 1-A.
 Alpha  occ. eigenvalues --   -1.05766  -0.95267  -0.92622  -0.80596  -0.75184
 Alpha  occ. eigenvalues --   -0.65649  -0.61926  -0.58826  -0.53048  -0.51234
 Alpha  occ. eigenvalues --   -0.50175  -0.46229  -0.46105  -0.44022  -0.42925
 Alpha  occ. eigenvalues --   -0.32755  -0.32533
 Alpha virt. eigenvalues --    0.01732   0.03067   0.09826   0.18495   0.19366
 Alpha virt. eigenvalues --    0.20970   0.21010   0.21629   0.21823   0.22492
 Alpha virt. eigenvalues --    0.22901   0.23496   0.23825   0.23973   0.24445
 Alpha virt. eigenvalues --    0.24462   0.24928
          Condensed to atoms (all electrons):
               1          2          3          4          5          6
     1  C    4.268439   0.000000   0.000000   0.000000   0.000000   0.000000
     2  C    0.000000   4.153907   0.000000   0.000000   0.000000   0.000000
     3  C    0.000000   0.000000   4.153902   0.000000   0.000000   0.000000
     4  C    0.000000   0.000000   0.000000   4.268443   0.000000   0.000000
     5  C    0.000000   0.000000   0.000000   0.000000   4.280327   0.000000
     6  C    0.000000   0.000000   0.000000   0.000000   0.000000   4.280328
     7  H    0.000000   0.000000   0.000000   0.000000   0.000000   0.000000
     8  H    0.000000   0.000000   0.000000   0.000000   0.000000   0.000000
     9  H    0.000000   0.000000   0.000000   0.000000   0.000000   0.000000
    10  H    0.000000   0.000000   0.000000   0.000000   0.000000   0.000000
    11  H    0.000000   0.000000   0.000000   0.000000   0.000000   0.000000
    12  H    0.000000   0.000000   0.000000   0.000000   0.000000   0.000000
    13  H    0.000000   0.000000   0.000000   0.000000   0.000000   0.000000
    14  H    0.000000   0.000000   0.000000   0.000000   0.000000   0.000000
    15  H    0.000000   0.000000   0.000000   0.000000   0.000000   0.000000
    16  H    0.000000   0.000000   0.000000   0.000000   0.000000   0.000000
               7          8          9         10         11         12
     1  C    0.000000   0.000000   0.000000   0.000000   0.000000   0.000000
     2  C    0.000000   0.000000   0.000000   0.000000   0.000000   0.000000
     3  C    0.000000   0.000000   0.000000   0.000000   0.000000   0.000000
     4  C    0.000000   0.000000   0.000000   0.000000   0.000000   0.000000
     5  C    0.000000   0.000000   0.000000   0.000000   0.000000   0.000000
     6  C    0.000000   0.000000   0.000000   0.000000   0.000000   0.000000
     7  H    0.850794   0.000000   0.000000   0.000000   0.000000   0.000000
     8  H    0.000000   0.865341   0.000000   0.000000   0.000000   0.000000
     9  H    0.000000   0.000000   0.862497   0.000000   0.000000   0.000000
    10  H    0.000000   0.000000   0.000000   0.862497   0.000000   0.000000
    11  H    0.000000   0.000000   0.000000   0.000000   0.850794   0.000000
    12  H    0.000000   0.000000   0.000000   0.000000   0.000000   0.865340
    13  H    0.000000   0.000000   0.000000   0.000000   0.000000   0.000000
    14  H    0.000000   0.000000   0.000000   0.000000   0.000000   0.000000
    15  H    0.000000   0.000000   0.000000   0.000000   0.000000   0.000000
    16  H    0.000000   0.000000   0.000000   0.000000   0.000000   0.000000
              13         14         15         16
     1  C    0.000000   0.000000   0.000000   0.000000
     2  C    0.000000   0.000000   0.000000   0.000000
     3  C    0.000000   0.000000   0.000000   0.000000
     4  C    0.000000   0.000000   0.000000   0.000000
     5  C    0.000000   0.000000   0.000000   0.000000
     6  C    0.000000   0.000000   0.000000   0.000000
     7  H    0.000000   0.000000   0.000000   0.000000
     8  H    0.000000   0.000000   0.000000   0.000000
     9  H    0.000000   0.000000   0.000000   0.000000
    10  H    0.000000   0.000000   0.000000   0.000000
    11  H    0.000000   0.000000   0.000000   0.000000
    12  H    0.000000   0.000000   0.000000   0.000000
    13  H    0.862551   0.000000   0.000000   0.000000
    14  H    0.000000   0.856143   0.000000   0.000000
    15  H    0.000000   0.000000   0.862552   0.000000
    16  H    0.000000   0.000000   0.000000   0.856143
 Mulliken charges:
               1
     1  C   -0.268439
     2  C   -0.153907
     3  C   -0.153902
     4  C   -0.268443
     5  C   -0.280327
     6  C   -0.280328
     7  H    0.149206
     8  H    0.134659
     9  H    0.137503
    10  H    0.137503
    11  H    0.149206
    12  H    0.134660
    13  H    0.137449
    14  H    0.143857
    15  H    0.137448
    16  H    0.143857
 Sum of Mulliken charges =   0.00000
 Mulliken charges with hydrogens summed into heavy atoms:
               1
     1  C    0.015426
     2  C   -0.016404
     3  C   -0.016399
     4  C    0.015422
     5  C    0.000978
     6  C    0.000977
 APT charges:
               1
     1  C   -0.219734
     2  C   -0.194376
     3  C   -0.194364
     4  C   -0.219744
     5  C   -0.303754
     6  C   -0.303759
     7  H    0.122228
     8  H    0.154926
     9  H    0.154274
    10  H    0.154273
    11  H    0.122229
    12  H    0.154926
    13  H    0.150697
    14  H    0.135703
    15  H    0.150697
    16  H    0.135704
 Sum of APT charges =  -0.00007
 APT charges with hydrogens summed into heavy atoms:
               1
     1  C    0.057420
     2  C   -0.040102
     3  C   -0.040091
     4  C    0.057411
     5  C   -0.017355
     6  C   -0.017358
 Charge=              0.0000 electrons
 Dipole moment (field-independent basis, Debye):
    X=             -0.5317    Y=              0.0000    Z=              0.1478  Tot=              0.5518
 N-N= 1.440469958352D+02 E-N=-2.166860000009D+02  KE=-5.048504574578D+01
  Exact polarizability:      62.761       0.000      67.156      -6.715      -0.001      33.559
 Approx polarizability:      52.478      -0.001      60.150      -7.643      -0.001      24.972
 Calling FoFJK, ICntrl=    100127 FMM=F ISym2X=0 I1Cent= 0 IOpClX= 0 NMat=1 NMatS=1 NMatT=0.
 Full mass-weighted force constant matrix:
 Low frequencies --- -948.7092   -2.3696   -1.0814   -0.1772   -0.0063    2.7114
 Low frequencies ---    4.0055  145.0639  200.5290
 ******    1 imaginary frequencies (negative Signs) ****** 
 Diagonal vibrational polarizability:
        4.5133713       4.9021478       3.6312830
 Harmonic frequencies (cm**-1), IR intensities (KM/Mole), Raman scattering
 activities (A**4/AMU), depolarization ratios for plane and unpolarized
 incident light, reduced masses (AMU), force constants (mDyne/A),
 and normal coordinates:
                      1                      2                      3
                      A                      A                      A
 Frequencies --   -948.7092               145.0639               200.5290
 Red. masses --      6.8315                 2.0454                 4.7268
 Frc consts  --      3.6227                 0.0254                 0.1120
 IR Inten    --     15.7320                 0.5778                 2.1964
  Atom  AN      X      Y      Z        X      Y      Z        X      Y      Z
     1   6     0.33   0.09   0.09     0.07   0.05  -0.05    -0.24  -0.15  -0.10
     2   6    -0.03   0.11   0.04     0.01  -0.02  -0.05    -0.12  -0.08  -0.06
     3   6    -0.03  -0.11   0.04    -0.01  -0.02   0.05     0.12  -0.08   0.06
     4   6     0.33  -0.09   0.09    -0.07   0.05   0.05     0.24  -0.15   0.10
     5   6    -0.31   0.14  -0.12     0.07  -0.04  -0.16    -0.02   0.21  -0.09
     6   6    -0.31  -0.14  -0.12    -0.07  -0.04   0.16     0.02   0.21   0.09
     7   1    -0.25  -0.07  -0.17     0.10   0.12  -0.02    -0.03  -0.10  -0.01
     8   1     0.10   0.06   0.07     0.06   0.04  -0.14    -0.26  -0.14  -0.10
     9   1    -0.10  -0.05  -0.13     0.00  -0.08  -0.10    -0.22  -0.04  -0.12
    10   1    -0.10   0.05  -0.13     0.00  -0.08   0.10     0.22  -0.04   0.12
    11   1    -0.25   0.07  -0.17    -0.10   0.12   0.02     0.03  -0.10   0.01
    12   1     0.10  -0.06   0.07    -0.06   0.04   0.14     0.26  -0.14   0.10
    13   1     0.19  -0.05   0.08     0.02  -0.28  -0.37     0.09   0.09  -0.12
    14   1     0.19  -0.05   0.08     0.20   0.21  -0.29     0.17   0.30  -0.09
    15   1     0.19   0.05   0.08    -0.02  -0.28   0.37    -0.09   0.09   0.12
    16   1     0.19   0.05   0.08    -0.20   0.21   0.29    -0.17   0.30   0.09
                      4                      5                      6
                      A                      A                      A
 Frequencies --    272.3168               355.0706               406.8681
 Red. masses --      2.6565                 2.7484                 2.0296
 Frc consts  --      0.1161                 0.2042                 0.1980
 IR Inten    --      0.4119                 0.6347                 1.2560
[...]
   xx         0.671554D+02      0.995141D+01      0.110724D+02
   yx        -0.970248D-01     -0.143776D-01     -0.159972D-01
   yy         0.321886D+02      0.476986D+01      0.530719D+01
   zx        -0.507167D-02     -0.751545D-03     -0.836206D-03
   zy        -0.178305D+01     -0.264221D+00     -0.293985D+00
   zz         0.641321D+02      0.950339D+01      0.105739D+02

 First dipole hyperpolarizability, Beta (dipole orientation).
 ||, _|_  parallel and perpendicular components, (z) with respect to z axis,
 vector components x,y,z.  Values do not include the 1/n! factor of 1/2.
 (esu units = statvolt**-1 cm**4 , SI units = C**3 m**3 J**-2)
 Beta(0;0,0):
               (au)            (10**-30 esu)      (10**-50 SI)
   || (z)    -0.385364D+02     -0.332925D+00     -0.123562D+00
   _|_(z)    -0.128455D+02     -0.110975D+00     -0.411873D-01
   x          0.419179D+00      0.362138D-02      0.134404D-02
   y          0.149832D+03      0.129443D+01      0.480416D+00
   z         -0.192682D+03     -0.166462D+01     -0.617809D+00
   ||         0.488165D+02      0.421737D+00      0.156523D+00
   xxx        0.115067D+00      0.994091D-03      0.368947D-03
   xxy        0.135889D+02      0.117398D+00      0.435710D-01
   yxy       -0.508703D-01     -0.439480D-03     -0.163109D-03
   yyy        0.862765D+01      0.745361D-01      0.276634D-01
   xxz       -0.402584D+01     -0.347802D-01     -0.129083D-01
   yxz       -0.428815D-01     -0.370463D-03     -0.137494D-03
   yyz       -0.192684D+02     -0.166464D+00     -0.617815D-01
   zxz        0.755294D-01      0.652515D-03      0.242174D-03
   zyz        0.277275D+02      0.239544D+00      0.889044D-01
   zzz       -0.409331D+02     -0.353630D+00     -0.131246D+00

 ----------------------------------------------------------------------
 Unable to Open any file for archive entry.
 1|1|UNPC-SKCH-134-024|Freq|RPM6|ZDO|C6H10|AL6323|11-Nov-2025|0||#N Geo
 m=AllCheck Guess=TCheck SCRF=Check GenChk RPM6/ZDO Freq||TS (Berny)||0
 ,1|C,-0.67178524,0.95410643,0.10772943|C,0.03391228,-0.17321529,-0.259
 54267|C,1.44500207,-0.17424395,-0.25259006|C,2.14868908,0.95205205,0.1
 2161926|C,1.41976873,1.19952817,2.09127618|C,0.03802951,1.20054581,2.0
 8446463|H,-0.30004715,1.95315496,-0.09757422|H,-1.74296589,0.91672115,
 0.25513643|H,-0.48341816,-1.12265555,-0.39486339|H,1.96225598,-1.12443
 909,-0.38280937|H,1.78044573,1.95163927,-0.08732713|H,3.21830878,0.913
 10848,0.27957717|H,1.97614115,2.12484809,2.17301391|H,1.96984614,0.321
 16444,2.40670667|H,-0.51775642,2.12668654,2.16072091|H,-0.51642489,0.3
 2300027,2.39446407||Version=EM64W-G16RevC.01|State=1-A|HF=0.11286|RMSD
 =1.870e-010|RMSF=3.241e-007|ZeroPoint=0.1292307|Thermal=0.1356489|ETot
 =0.2485088|HTot=0.249453|GTot=0.2126262|Dipole=-0.0006431,0.1541881,0.
 1528361|DipoleDeriv=-0.3493309,-0.0067839,0.0201216,0.0050869,-0.25075
 55,0.1106272,-0.0373383,0.096946,-0.0591157,-0.1165433,-0.0233957,0.10
 87326,-0.0343709,-0.2126697,-0.1198318,-0.1404237,0.0143134,-0.2539154
 ,-0.1167732,0.0231156,-0.1075574,0.0354124,-0.212747,-0.1193171,0.1417
 972,0.0143376,-0.2535728,-0.3494789,0.0059735,-0.0228115,-0.0060346,-0
 .2507632,0.1106005,0.0346178,0.0969515,-0.0589886,-0.2236925,0.0063959
 ,-0.0170821,-0.0875636,-0.3141797,0.0305505,-0.1610702,-0.0876995,-0.3
 733907,-0.2253554,-0.0056643,0.0185723,0.0871239,-0.3142973,0.0313916,
 0.162396,-0.087995,-0.3716231,0.062566,0.0259127,-0.0156857,-0.0761255
 ,0.1784072,-0.0493688,0.0178876,-0.0286719,0.1257094,0.2532301,-0.0175
 224,0.0231945,0.008574,0.1013443,-0.0072847,-0.0352138,-0.0086042,0.11
 02051,0.1118257,0.0717382,0.0435228,0.069969,0.2034764,0.0485171,0.027
 9693,0.0058255,0.1475212,0.1123255,-0.0716587,-0.0437968,-0.0703107,0.
 2036825,0.0478874,-0.0283056,0.00516,0.1468113,0.0626687,-0.0254609,0.
 0149943,0.0767779,0.1783338,-0.0486411,-0.018552,-0.028898,0.1256838,0
 .2531128,0.0173857,-0.0218001,-0.0087229,0.1013319,-0.0073356,0.036609
 5,-0.0084845,0.1103341,0.1309817,0.0459442,0.0379498,0.0657555,0.17653
 85,0.0840193,-0.0116022,0.0052296,0.1445696,0.1312597,-0.0195655,0.045
 7242,-0.0680705,0.1177463,-0.0980771,0.0313434,0.0033442,0.1581017,0.1
 310772,-0.0459256,-0.037956,-0.0665141,0.1767024,0.0834192,0.0114781,0
 .0047604,0.1443101,0.1321543,0.0195108,-0.0461223,0.069014,0.1176173,-
 0.0973303,-0.0315926,0.0035825,0.1573407|Polar=67.1551655,-0.0937838,4
 6.5177697,0.0970033,15.9866435,49.8031934|HyperPolar=0.2011826,6.70694
 26,-0.0073573,-2.462322,-12.4856655,0.112839,-1.0239942,0.1978323,-14.
 6994156,-67.1757507|PG=C01 [X(C6H10)]|NImag=1||0.51244751,-0.13322897,
 0.58546185,-0.10662401,-0.00007578,0.06145856,-0.16579439,0.09816781,-
 0.04168437,0.62460492,0.17464456,-0.30984000,-0.02880151,-0.04839388,0
 .60822635,0.06147489,-0.07813564,-0.06310285,-0.02878379,0.12112026,0.
 18382891,-0.04827576,0.08945069,0.09699975,-0.28664183,-0.06372578,-0.
 01818405,0.62413269,0.02774709,0.02792625,0.03801839,0.06404660,-0.090
 04774,-0.00311235,0.04717530,0.60808889,0.00707295,0.00409382,0.016549
 03,0.01596619,-0.00376675,-0.06209865,0.03329847,0.12154394,0.18443957
 ,-0.00862789,-0.00333052,0.00027207,-0.04741510,-0.02801071,-0.0076970
 2,-0.16598656,-0.17456243,-0.06260062,0.51069140,0.00377905,-0.0346165
 3,-0.04932724,-0.08937581,0.02809687,0.00322352,-0.09760443,-0.3094450
 0,-0.07900889,0.13333227,0.58507577,0.00034518,-0.04936224,-0.07853037
 ,-0.09757290,0.03788496,0.01551759,0.04062870,-0.03058188,-0.06330810,
 0.11104969,0.00108005,0.06360590,-0.00809375,-0.05301233,-0.09698803,-
 0.08249833,0.04193666,0.00978953,0.08433435,0.05077021,0.01726404,-0.0
 0391924,-0.05859538,-0.10778277,0.61936849,-0.00043493,0.00626517,0.00
 911148,0.00827763,-0.00657496,-0.00557118,-0.01221148,-0.00957293,-0.0
 0988791,-0.00206607,-0.00044856,0.01830470,0.02204301,0.42356174,-0.00
 705440,0.03999955,0.06349737,0.06680617,-0.03747193,-0.01383421,-0.076
 69216,-0.05437160,-0.02813065,-0.01251108,0.05647648,0.09569037,0.1383
 4971,-0.04644903,0.08266699,-0.00500835,0.05804291,0.10681829,0.083682
 20,-0.05036780,-0.01617610,-0.08180880,-0.04145535,-0.01046708,-0.0090
 3478,0.05263603,0.09628354,-0.37926736,-0.01216892,-0.08569914,0.62198
 004,0.00189224,-0.00053659,0.01816823,0.01217185,-0.00951711,-0.009743
 70,-0.00811222,-0.00650212,-0.00563698,0.00036729,0.00618737,0.0089742
 2,0.01269072,-0.07127709,-0.00662247,-0.02187727,0.42362478,0.01160066
 ,0.05703568,0.09687044,0.07771630,-0.05498373,-0.02753516,-0.06753200,
 -0.03778551,-0.01459588,0.00639731,0.04051061,0.06451690,0.08308388,-0
 .00686846,-0.11481172,-0.13310307,-0.04646905,0.07998938,-0.05756043,-
 0.05562089,0.01604203,0.01157042,0.01050927,-0.00159976,-0.00380503,-0
 .00088299,-0.00117923,-0.00248672,0.00352256,0.00216370,0.00232654,-0.
 00015777,-0.00296060,-0.00201233,0.00029088,-0.00472024,0.06444233,-0.
 06028109,-0.19254759,0.03130385,-0.00075752,-0.03920992,-0.00070112,0.
 00091303,-0.00088216,-0.00023580,0.00073523,-0.00035279,-0.00023930,-0
 .00048823,-0.00010564,0.00046548,0.00216499,-0.00068968,0.00644211,0.0
 6310542,0.23868232,0.01301844,0.04886228,-0.02201732,0.01440739,-0.016
 57403,0.00183758,-0.01216327,-0.00544989,-0.00400854,0.00017557,0.0065
 5166,0.01027274,0.01054209,-0.00073981,-0.00946264,-0.01469794,0.00309
 211,-0.02620034,-0.01604709,-0.03801250,0.03961419,-0.22071153,-0.0069
 4564,0.02663626,-0.02699086,0.01206361,0.00742877,-0.00088521,0.001020
 66,0.00192512,0.00029349,0.00031489,0.00018204,0.00027941,-0.00006069,
 -0.00030264,-0.00474963,-0.00092213,-0.00386699,-0.01318107,-0.0071055
 4,0.00387683,0.26572164,-0.01011913,-0.03553880,0.00142408,0.02803693,
 -0.00423045,-0.00589039,0.00114069,-0.00193241,-0.00076583,-0.00016466
 ,0.00006883,-0.00013925,-0.00020171,-0.00009165,-0.00001828,-0.0004996
 2,0.00017879,-0.00057102,-0.02075131,-0.00371995,0.00355799,0.00123904
 ,0.04527984,0.02502135,0.00220537,-0.03820233,0.01290574,-0.00284165,0
 .00229051,-0.00042684,-0.00369828,0.00488895,-0.00088649,0.00085122,0.
 00108402,0.00186420,-0.00014993,-0.00211379,-0.00814107,-0.00135600,-0
 .00423193,0.00538908,0.00180881,0.00527528,-0.03423098,0.00266363,0.03
 414266,0.00647552,0.01107226,0.00154349,-0.07483969,-0.07663375,-0.009
 79633,-0.03130754,-0.02697262,-0.00359281,-0.00304277,0.00058203,0.000
 23050,0.00052079,0.00011448,-0.00003173,-0.00032467,-0.00002830,0.0000
 0635,-0.00070545,0.00114271,0.00084111,0.00046295,0.00085970,-0.000156
 52,0.10367687,-0.00303174,-0.04090019,-0.01044199,-0.07789035,-0.17288
 106,-0.01852777,-0.01167516,-0.00337679,-0.00196800,0.00010792,-0.0000
 6934,-0.00128082,-0.00043655,0.00025806,0.00094045,0.00115713,-0.00016
 194,0.00103586,0.00075783,-0.00198593,-0.00181861,0.00061245,-0.000114
 45,0.00032278,0.09037253,0.21842777,-0.00223014,-0.00793980,0.00886982
 ,-0.00436998,-0.02213696,-0.04502367,-0.00625998,-0.00221406,0.0046570
 4,0.00037400,0.00163423,0.00712578,0.00368455,-0.00017984,-0.00268131,
 -0.00388639,-0.00031291,-0.00345029,0.00195779,-0.00050133,0.00448731,
 -0.00038485,-0.00013140,-0.00217058,0.01126717,0.03158721,0.02836177,-
 0.00303682,-0.00059379,-0.00033253,-0.03134466,0.02703387,0.00323490,-
 0.07475071,0.07670505,0.00947548,0.00645744,-0.01106254,-0.00158237,-0
 .00036486,0.00003168,0.00002557,0.00055693,-0.00011313,0.00006503,0.00
 003932,-0.00011433,-0.00006527,-0.00019065,0.00041417,0.00039373,-0.00
 072885,0.00025688,-0.00000203,0.10362739,-0.00009097,-0.00006835,-0.00
 128137,0.01173472,-0.00343323,-0.00185759,0.07792602,-0.17310658,-0.01
 777356,0.00306544,-0.04088859,-0.01040940,-0.00116696,-0.00016028,0.00
 102434,0.00042684,0.00025758,0.00094462,-0.00000108,-0.00002085,0.0001
 5321,0.00007262,-0.00001938,0.00014486,-0.00025870,0.00077681,0.000406
 98,-0.09051195,0.21869175,-0.00047176,0.00162911,0.00711899,0.00590201
 ,-0.00195683,0.00475059,0.00404375,-0.02138711,-0.04488724,0.00219477,
 -0.00805184,0.00887626,0.00391637,-0.00031831,-0.00341168,-0.00365295,
 -0.00017559,-0.00271710,0.00011604,-0.00020604,-0.00050597,-0.00009004
 ,0.00006059,-0.00012273,0.00000494,0.00040952,-0.00096462,-0.01047840,
 0.03071103,0.02814729,-0.00246873,-0.00358385,-0.00228955,-0.00393643,
 0.00094107,0.00117960,0.01168157,-0.01041966,0.00169577,-0.05710353,0.
 05493999,-0.01634228,-0.00220970,-0.00031916,0.00496586,0.00240096,0.0
 0016138,0.00307812,0.00102391,0.00079444,0.00014743,0.00012646,0.00013
 657,-0.00017226,0.00003994,-0.00000052,-0.00011096,-0.00068011,-0.0007
 4177,-0.00200943,0.06394171,-0.00072975,-0.00034653,-0.00024325,-0.000
 90627,-0.00088220,-0.00024648,0.00069036,-0.03919578,-0.00069636,0.059
 77284,-0.19271563,0.03191852,-0.00222627,-0.00068604,0.00641314,0.0004
 8003,-0.00010658,0.00046585,-0.00079579,0.00035418,0.00003454,-0.00023
 964,-0.00006270,0.00021315,0.00011626,-0.00002102,-0.00020474,-0.00113
 962,-0.00198318,-0.00050968,-0.06247371,0.23886536,-0.00029158,0.00651
 698,0.01024849,0.01215589,-0.00545856,-0.00387713,-0.01433433,-0.01665
 593,0.00171235,-0.01329329,0.04942525,-0.02230715,0.01493859,0.0030673
 8,-0.02600547,-0.01042603,-0.00072294,-0.00953618,-0.00012622,0.000042
 58,-0.00112283,0.00005545,0.00000203,-0.00005198,0.00007088,0.00015311
 ,-0.00050640,-0.00089467,-0.00182473,0.00445927,0.01623177,-0.03865409
 ,0.03993158,0.00028641,-0.00032355,-0.00019005,-0.00087290,-0.00098575
 ,-0.00198302,-0.02684597,-0.01200209,-0.00772437,-0.22015968,0.0071926
 1,-0.02842767,-0.00486554,0.00094269,0.00385955,0.00029489,0.00006160,
 0.00032632,0.00012544,0.00023726,-0.00005371,-0.00018912,-0.00008062,0
 .00025613,-0.00018837,-0.00007379,0.00008948,0.00045521,-0.00061643,0.
 00041054,-0.01304749,0.00710098,-0.00405230,0.26502030,0.00016570,0.00
 006905,-0.00013735,-0.00113463,-0.00192930,-0.00077418,-0.02794452,-0.
 00417217,-0.00615519,0.01037356,-0.03556398,0.00156513,0.00051248,0.00
 017666,-0.00057160,0.00020133,-0.00009203,-0.00001675,-0.00013686,-0.0
 0006285,0.00000077,0.00008140,0.00003830,-0.00004461,-0.00041450,-0.00
 001867,0.00005638,-0.00085919,-0.00011230,-0.00014044,0.02072885,-0.00
 376048,0.00376818,-0.00158533,0.04528396,0.00087986,0.00084672,0.00109
 077,0.00036455,-0.00370864,0.00487366,-0.01319652,-0.00294105,0.002087
 33,-0.02681183,0.00231257,-0.03872962,0.00813227,-0.00135856,-0.004113
 09,-0.00184049,-0.00014657,-0.00212884,0.00017432,0.00021524,-0.000050
 80,-0.00025741,-0.00004503,-0.00006519,-0.00039415,0.00014472,-0.00012
 572,0.00018288,0.00031647,-0.00216499,-0.00556712,0.00188676,0.0051823
 0,0.03651078,0.00259809,0.03483958,-0.00043195,0.00058082,0.00109477,0
 .00106464,-0.00014248,0.00019445,-0.00094200,-0.00070307,-0.00027303,0
 .00056345,0.00056579,0.00145469,-0.08049813,-0.08037449,-0.00965272,-0
 .03291467,-0.02789986,-0.00228046,-0.00009413,-0.00002363,-0.00015547,
 -0.00002336,0.00003234,-0.00017553,-0.00006860,-0.00009812,-0.00008592
 ,0.00001655,0.00000565,-0.00005769,0.00038253,0.00020498,-0.00014342,0
 .00002617,0.00030042,0.00068686,0.11028936,-0.00001615,-0.00089222,-0.
 00092365,-0.00132313,0.00121160,0.00069579,0.00177088,0.00069200,0.000
 08947,0.00038048,-0.00396535,-0.00825722,-0.08512508,-0.17530630,-0.00
 832565,-0.01054289,-0.00260869,0.00029204,0.00007974,0.00012726,0.0001
 6155,-0.00003487,0.00005537,-0.00011344,-0.00008389,-0.00020250,0.0000
 0579,0.00001878,-0.00006711,0.00004820,-0.00017180,0.00070104,-0.00001
 828,0.00047450,-0.00010059,-0.00019710,0.10120238,0.20275351,0.0000187
 5,-0.00512595,-0.00894271,-0.00871452,0.00398840,0.00077716,0.00856546
 ,0.00526463,0.00134764,0.00141070,-0.01341853,-0.02123842,-0.02359485,
 -0.01083765,-0.02312900,0.01052366,-0.00033428,0.01235150,0.00012459,-
 0.00009214,0.00098403,-0.00002523,-0.00003444,0.00027342,0.00006425,-0
 .00003447,0.00040798,0.00001909,-0.00022548,0.00049295,-0.00028055,-0.
 00040094,-0.00085033,0.00042712,-0.00039105,-0.00057139,0.00969030,0.0
 1524502,0.03166635,-0.00040879,0.00057737,0.00108909,0.00096213,-0.000
 23252,0.00020954,-0.00076767,-0.00075635,-0.00045291,0.00059555,0.0008
 2897,0.00138935,-0.07937385,0.07464044,-0.02977217,-0.03289516,0.02620
 830,-0.00926691,-0.00004714,0.00002992,-0.00010792,-0.00003784,0.00003
 980,-0.00016163,-0.00005835,-0.00008765,-0.00009742,0.00007187,-0.0000
 3157,-0.00000293,-0.00000999,0.00015148,-0.00013319,0.00002515,-0.0002
 1646,0.00080353,0.00601799,-0.00675637,0.00160551,0.10934035,-0.000041
 92,-0.00046170,-0.00119867,-0.00063296,-0.00028508,-0.00029137,0.00025
 527,0.00060238,-0.00025594,-0.00007810,-0.00000864,0.00266267,0.075802
 05,-0.16242117,0.04508663,0.01310063,-0.00100928,0.00317070,0.00001781
 ,-0.00002190,0.00009791,0.00002639,-0.00002912,0.00015028,0.00008320,0
 .00022194,0.00000637,-0.00006697,0.00011361,-0.00012371,0.00010712,-0.
 00026585,0.00010079,-0.00034991,0.00021809,0.00003935,0.00661642,-0.02
 338527,0.00588648,-0.09469341,0.18585482,-0.00018305,-0.00513862,-0.00
 874290,-0.00818717,0.00445475,0.00141153,0.00832708,0.00494240,-0.0010
 0761,0.00161120,-0.00197585,-0.02485973,-0.04437717,0.04781328,-0.0379
 0371,0.00741372,0.00435386,0.01145516,0.00019269,0.00002677,0.00106401
 ,-0.00002664,-0.00000187,0.00016834,-0.00001019,-0.00013876,0.00027609
 ,0.00002125,-0.00015809,0.00024282,-0.00018616,0.00008786,0.00067244,0
 .00050383,0.00027967,-0.00056775,-0.00024013,0.00151804,0.00502144,0.0
 3512238,-0.05564461,0.05127682,0.00058855,-0.00044023,-0.00125170,-0.0
 0086171,0.00065341,0.00025134,0.00098272,0.00010353,-0.00019139,-0.000
 42250,-0.00053094,-0.00101213,-0.03277234,0.02794628,0.00183582,-0.080
 57607,0.08033747,0.00907351,0.00037820,-0.00020054,0.00015552,0.000035
 97,-0.00029675,-0.00068114,0.00001618,-0.00000355,0.00005307,-0.000068
 49,0.00009825,0.00008123,-0.00009442,0.00002486,0.00014508,-0.00002531
 ,-0.00003188,0.00017241,-0.00038973,0.00014738,-0.00040718,-0.00299613
 ,0.00012075,0.00041625,0.11017396,-0.00030571,-0.00396430,-0.00825880,
 -0.00176934,0.00069361,0.00007165,0.00131646,0.00120947,0.00070907,0.0
 0002457,-0.00089141,-0.00092187,0.01058410,-0.00266544,0.00039312,0.08
 506299,-0.17555009,-0.00750051,0.00017244,0.00070108,-0.00001683,-0.00
 047272,-0.00009947,-0.00020077,-0.00001938,-0.00006708,0.00004793,0.00
 008363,-0.00020275,0.00000649,-0.00008099,0.00012735,0.00016053,0.0000
 3611,0.00005536,-0.00011334,-0.00014030,0.00104362,-0.00050500,0.00002
 170,-0.00005724,0.00028362,-0.10121100,0.20305200,-0.00121505,-0.01342
 181,-0.02126465,-0.00857933,0.00528372,0.00126569,0.00872207,0.0039767
 6,0.00086115,0.00005775,-0.00513122,-0.00895246,-0.01096878,-0.0000432
 4,0.01226536,0.02301146,-0.01007967,-0.02280721,0.00029208,-0.00040340
 ,-0.00084604,-0.00042169,-0.00039338,-0.00058230,-0.00002412,-0.000225
 50,0.00049327,-0.00006900,-0.00003340,0.00040814,-0.00013534,-0.000091
 70,0.00098418,0.00002225,-0.00003479,0.00027535,0.00043288,-0.00050419
 ,-0.00307364,-0.00064540,0.00101648,0.00448220,-0.00889312,0.01426102,
 0.03148354,0.00062161,-0.00081046,-0.00113426,-0.00068952,0.00070951,0
 .00045566,0.00088483,0.00018694,-0.00021515,-0.00040136,-0.00052683,-0
 .00100871,-0.03296716,-0.02620279,0.00883417,-0.08032375,-0.07522873,0
 .02942212,-0.00001344,-0.00015271,0.00012660,0.00003880,0.00021396,-0.
 00079752,0.00007222,0.00003319,0.00000107,-0.00005936,0.00008942,0.000
 09413,-0.00004627,-0.00003015,0.00009713,-0.00003978,-0.00003976,0.000
 15980,-0.00299787,-0.00002017,0.00057315,-0.00041793,-0.00026602,-0.00
 039771,0.00603137,0.00669766,-0.00158695,0.11030781,0.00005093,-0.0000
 0755,0.00266505,-0.00025089,0.00060170,-0.00025912,0.00063415,-0.00028
 620,-0.00028479,0.00005369,-0.00046104,-0.00119681,-0.01308428,-0.0009
 5132,0.00302846,-0.07636341,-0.16219706,0.04429462,-0.00010847,-0.0002
 6546,0.00009956,0.00034976,0.00021728,0.00004398,0.00006825,0.00011346
 ,-0.00012304,-0.00008285,0.00022192,0.00000542,-0.00001874,-0.00002183
 ,0.00009761,-0.00002786,-0.00002902,0.00014977,-0.00012643,-0.00005703
 ,0.00101440,0.00027494,0.00093449,-0.00070048,-0.00671744,-0.02338536,
 0.00582333,0.09534832,0.18557310,-0.00136273,-0.00198212,-0.02488783,-
 0.00831701,0.00496196,-0.00108489,0.00818873,0.00444503,0.00149014,0.0
 0025782,-0.00514446,-0.00875123,-0.00784550,0.00410664,0.01146914,0.04
 403154,0.04701133,-0.03717685,0.00017956,0.00008610,0.00067558,-0.0004
 9747,0.00028253,-0.00058060,-0.00002316,-0.00015773,0.00024263,0.00000
 668,-0.00013790,0.00027714,-0.00020360,0.00002676,0.00106309,0.0000245
 9,-0.00000230,0.00017016,-0.00048957,0.00028406,0.00448366,0.00042201,
 -0.00070371,-0.00298789,0.00025241,0.00158413,0.00500804,-0.03462447,-
 0.05465832,0.05059096||0.00000079,-0.00000090,0.00000006,-0.00000055,0
 .00000089,0.00000002,0.00000046,0.00000045,0.00000025,-0.00000020,-0.0
 0000048,-0.00000022,-0.00000088,-0.00000012,-0.00000024,0.00000065,0.0
 0000009,-0.00000035,-0.00000005,-0.00000001,0.,-0.00000002,0.00000002,
 0.00000001,-0.00000006,0.,-0.00000003,0.00000006,-0.00000001,0.0000000
 7,0.,0.00000009,-0.00000023,0.00000006,0.00000002,-0.00000008,0.000000
 03,-0.00000004,0.00000012,-0.00000014,-0.00000006,0.00000007,-0.000000
 09,0.00000001,0.00000022,-0.00000005,0.00000005,0.00000034|||@
 The archive entry for this job was punched.


 THEREFORE SHALL EVIL COME UPON THEE...
 THOU SHALT NOT KNOW FROM WHENCE IT RISETH...
 AND MISCHIEF SHALL FALL UPON THEE...
 THOU SHALT NOT BE ABLE TO PUT IT OFF...
 AND DESOLATION SHALL COME UPON THEE SUDDENLY...
 WHICH THOU SHALT NOT KNOW...

                                         ISAIAH 47.11
 Job cpu time:       0 days  0 hours  0 minutes  5.0 seconds.
 Elapsed time:       0 days  0 hours  0 minutes  3.8 seconds.
 File lengths (MBytes):  RWF=     11 Int=      0 D2E=      0 Chk=      2 Scr=      1
 Normal termination of Gaussian 16 at Tue Nov 11 22:31:51 2025.
