 Default is to use a total of   8 processors:
                                8 via shared-memory
                                1 via Linda
 Entering Link 1 = C:\G16W\l1.exe PID=     19224.
  
 Copyright (c) 1988-2019, Gaussian, Inc.  All Rights Reserved.
  
 This is part of the Gaussian(R) 16 program.  It is based on
 the Gaussian(R) 09 system (copyright 2009, Gaussian, Inc.),
 the Gaussian(R) 03 system (copyright 2003, Gaussian, Inc.),
 the Gaussian(R) 98 system (copyright 1998, Gaussian, Inc.),
 the Gaussian(R) 94 system (copyright 1995, Gaussian, Inc.),
 the Gaussian 92(TM) system (copyright 1992, Gaussian, Inc.),
 the Gaussian 90(TM) system (copyright 1990, Gaussian, Inc.),
 the Gaussian 88(TM) system (copyright 1988, Gaussian, Inc.),
 the Gaussian 86(TM) system (copyright 1986, Carnegie Mellon
 University), and the Gaussian 82(TM) system (copyright 1983,
 Carnegie Mellon University). Gaussian is a federally registered
 trademark of Gaussian, Inc.
  
 This software contains proprietary and confidential information,
 including trade secrets, belonging to Gaussian, Inc.
  
 This software is provided under written license and may be
 used, copied, transmitted, or stored only in accord with that
 written license.
  
 The following legend is applicable only to US Government
 contracts under FAR:
  
                    RESTRICTED RIGHTS LEGEND
  
 Use, reproduction and disclosure by the US Government is
 subject to restrictions as set forth in subparagraphs (a)
 and (c) of the Commercial Computer Software - Restricted
 Rights clause in FAR 52.227-19.
  
 Gaussian, Inc.
 340 Quinnipiac St., Bldg. 40, Wallingford CT 06492
  
  
 ---------------------------------------------------------------
 Warning -- This program may not be used in any manner that
 competes with the business of Gaussian, Inc. or will provide
 assistance to any competitor of Gaussian, Inc.  The licensee
 of this program is prohibited from giving any competitor of
 Gaussian, Inc. access to this program.  By using this program,
 the user acknowledges that Gaussian, Inc. is engaged in the
 business of creating and licensing software in the field of
 computational chemistry and represents and warrants to the
 licensee that it is not a competitor of Gaussian, Inc. and that
 it will not use this program in any manner prohibited above.
 ---------------------------------------------------------------
  

 Cite this work as:
 Gaussian 16, Revision C.01,
 M. J. Frisch, G. W. Trucks, H. B. Schlegel, G. E. Scuseria, 
 M. A. Robb, J. R. Cheeseman, G. Scalmani, V. Barone, 
 G. A. Petersson, H. Nakatsuji, X. Li, M. Caricato, A. V. Marenich, 
 J. Bloino, B. G. Janesko, R. Gomperts, B. Mennucci, H. P. Hratchian, 
 J. V. Ortiz, A. F. Izmaylov, J. L. Sonnenberg, D. Williams-Young, 
 F. Ding, F. Lipparini, F. Egidi, J. Goings, B. Peng, A. Petrone, 
 T. Henderson, D. Ranasinghe, V. G. Zakrzewski, J. Gao, N. Rega, 
 G. Zheng, W. Liang, M. Hada, M. Ehara, K. Toyota, R. Fukuda, 
 J. Hasegawa, M. Ishida, T. Nakajima, Y. Honda, O. Kitao, H. Nakai, 
 T. Vreven, K. Throssell, J. A. Montgomery, Jr., J. E. Peralta, 
 F. Ogliaro, M. J. Bearpark, J. J. Heyd, E. N. Brothers, K. N. Kudin, 
 V. N. Staroverov, T. A. Keith, R. Kobayashi, J. Normand, 
 K. Raghavachari, A. P. Rendell, J. C. Burant, S. S. Iyengar, 
 J. Tomasi, M. Cossi, J. M. Millam, M. Klene, C. Adamo, R. Cammi, 
 J. W. Ochterski, R. L. Martin, K. Morokuma, O. Farkas, 
 J. B. Foresman, and D. J. Fox, Gaussian, Inc., Wallingford CT, 2019.
 
 ******************************************
 Gaussian 16:  EM64W-G16RevC.01 30-May-2019
                11-Nov-2025 
 ******************************************
 %chk=C:\Users\al6323\OneDrive - Imperial College London\Desktop\TSR20251111\TS_g
 uess_IRC.chk
 Default route: MaxDisk=10GB
 ----------------------------------------------------------------------
 # opt=(calcfc,tight,modredundant,maxcycles=200,noeigen) pm6 nosymm scf
 =tight
 ----------------------------------------------------------------------
 1/6=200,7=10,10=4,11=1,18=120,19=15,26=1,38=1/1,3;
 2/9=110,12=2,15=1,17=6,18=5,40=1/2;
 3/5=2,25=1,41=3900000,71=2,140=1/1,2,3;
 4/35=1/1;
 5/5=2,32=2,35=1,38=5/2;
 8/6=4,10=90,11=11/1;
 11/6=1,8=1,9=11,15=111,16=1,31=1/1,2,10;
 10/6=1,13=1,31=1/2;
 6/7=2,8=2,9=2,10=2,28=1/1;
 7/10=1,25=1,30=1/1,2,3,16;
 1/6=200,7=10,10=4,11=1,18=20,19=15,26=1/3(2);
 2/9=110,15=1/2;
 99//99;
 2/9=110,15=1/2;
 3/5=2,25=1,41=3900000,71=1,135=20/1,2,3;
 4/5=5,16=3,35=1/1;
 5/5=2,32=2,35=1,38=5/2;
 7/30=1/1,2,3,16;
 1/6=200,7=10,11=1,18=20,19=15,26=1/3(-5);
 2/9=110,15=1/2;
 6/7=2,8=2,9=2,10=2,19=2,28=1/1;
 99/9=1/99;
 ----------
 TS IRC PM6
 ----------
 Symbolic Z-matrix:
 Charge =  0 Multiplicity = 1
 C                    -0.67      1.16      0. 
 C                     0.        0.        0. 
 C                     1.47      0.        0. 
 C                     2.14      1.16      0. 
 C                     1.405     1.16      2.1 
 C                     0.065     1.16      2.1 
 H                    -1.231     2.095     0. 
 H                    -1.43      0.38      0. 
 H                    -0.545    -0.944     0. 
 H                     2.015    -0.944     0. 
 H                     2.701     2.095     0. 
 H                     2.9       0.38      0. 
 H                     1.95      2.104     2.1 
 H                     1.95      0.216     2.1 
 H                    -0.48      2.104     2.1 
 H                    -0.48      0.216     2.1 
 
 Add virtual bond connecting atoms C5         and C4         Dist= 4.20D+00.
 Add virtual bond connecting atoms C6         and C1         Dist= 4.20D+00.
 Add virtual bond connecting atoms H13        and C4         Dist= 4.37D+00.
 Add virtual bond connecting atoms H13        and H11        Dist= 4.21D+00.
 Add virtual bond connecting atoms H14        and C3         Dist= 4.09D+00.
 The following ModRedundant input section has been read:
 B       4       5 F                                                           
 B       1       6 F                                                           
 

 GradGradGradGradGradGradGradGradGradGradGradGradGradGradGradGradGradGrad
 Berny optimization.
 Initialization pass.
                           ----------------------------
                           !    Initial Parameters    !
                           ! (Angstroms and Degrees)  !
 --------------------------                            --------------------------
 ! Name  Definition              Value          Derivative Info.                !
 --------------------------------------------------------------------------------
 ! R1    R(1,2)                  1.3396         calculate D2E/DX2 analytically  !
 ! R2    R(1,6)                  2.2249         frozen, calculate D2E/DX2 analyt!
 ! R3    R(1,7)                  1.0904         calculate D2E/DX2 analytically  !
 ! R4    R(1,8)                  1.089          calculate D2E/DX2 analytically  !
 ! R5    R(2,3)                  1.47           calculate D2E/DX2 analytically  !
 ! R6    R(2,9)                  1.09           calculate D2E/DX2 analytically  !
 ! R7    R(3,4)                  1.3396         calculate D2E/DX2 analytically  !
 ! R8    R(3,10)                 1.09           calculate D2E/DX2 analytically  !
 ! R9    R(3,14)                 2.165          calculate D2E/DX2 analytically  !
 ! R10   R(4,5)                  2.2249         frozen, calculate D2E/DX2 analyt!
 ! R11   R(4,11)                 1.0904         calculate D2E/DX2 analytically  !
 ! R12   R(4,12)                 1.089          calculate D2E/DX2 analytically  !
 ! R13   R(4,13)                 2.3102         calculate D2E/DX2 analytically  !
 ! R14   R(5,6)                  1.34           calculate D2E/DX2 analytically  !
 ! R15   R(5,13)                 1.09           calculate D2E/DX2 analytically  !
 ! R16   R(5,14)                 1.09           calculate D2E/DX2 analytically  !
 ! R17   R(6,15)                 1.09           calculate D2E/DX2 analytically  !
 ! R18   R(6,16)                 1.09           calculate D2E/DX2 analytically  !
 ! R19   R(11,13)                2.2303         calculate D2E/DX2 analytically  !
 ! A1    A(2,1,6)               80.4896         calculate D2E/DX2 analytically  !
 ! A2    A(2,1,8)               74.2661         calculate D2E/DX2 analytically  !
 ! A3    A(6,1,7)               99.7857         calculate D2E/DX2 analytically  !
 ! A4    A(6,1,8)              103.3289         calculate D2E/DX2 analytically  !
 ! A5    A(7,1,8)              104.7803         calculate D2E/DX2 analytically  !
 ! A6    A(1,2,3)              120.0101         calculate D2E/DX2 analytically  !
 ! A7    A(1,2,9)              119.9907         calculate D2E/DX2 analytically  !
 ! A8    A(3,2,9)              119.9992         calculate D2E/DX2 analytically  !
 ! A9    A(2,3,4)              120.0101         calculate D2E/DX2 analytically  !
 ! A10   A(2,3,10)             119.9992         calculate D2E/DX2 analytically  !
 ! A11   A(2,3,14)             102.8097         calculate D2E/DX2 analytically  !
 ! A12   A(4,3,10)             119.9907         calculate D2E/DX2 analytically  !
 ! A13   A(4,3,14)              78.6217         calculate D2E/DX2 analytically  !
 ! A14   A(10,3,14)             88.599          calculate D2E/DX2 analytically  !
 ! A15   A(3,4,5)               80.4896         calculate D2E/DX2 analytically  !
 ! A16   A(3,4,12)              74.2661         calculate D2E/DX2 analytically  !
 ! A17   A(3,4,13)             108.2221         calculate D2E/DX2 analytically  !
 ! A18   A(5,4,11)              99.7857         calculate D2E/DX2 analytically  !
 ! A19   A(5,4,12)             103.3289         calculate D2E/DX2 analytically  !
 ! A20   A(11,4,12)            104.7803         calculate D2E/DX2 analytically  !
 ! A21   A(12,4,13)            110.4907         calculate D2E/DX2 analytically  !
 ! A22   A(4,5,6)              109.29           calculate D2E/DX2 analytically  !
 ! A23   A(4,5,14)              80.4928         calculate D2E/DX2 analytically  !
 ! A24   A(6,5,13)             119.9992         calculate D2E/DX2 analytically  !
 ! A25   A(6,5,14)             119.9992         calculate D2E/DX2 analytically  !
 ! A26   A(13,5,14)            120.0017         calculate D2E/DX2 analytically  !
 ! A27   A(1,6,5)              109.29           calculate D2E/DX2 analytically  !
 ! A28   A(1,6,15)              80.4928         calculate D2E/DX2 analytically  !
 ! A29   A(1,6,16)              80.4928         calculate D2E/DX2 analytically  !
 ! A30   A(5,6,15)             119.9992         calculate D2E/DX2 analytically  !
 ! A31   A(5,6,16)             119.9992         calculate D2E/DX2 analytically  !
 ! A32   A(15,6,16)            120.0017         calculate D2E/DX2 analytically  !
 ! A33   A(5,13,11)             99.4895         calculate D2E/DX2 analytically  !
 ! A34   A(3,14,5)              88.599          calculate D2E/DX2 analytically  !
 ! A35   L(2,1,7,6,-1)         180.2754         calculate D2E/DX2 analytically  !
 ! A36   L(3,4,11,5,-1)        180.2754         calculate D2E/DX2 analytically  !
 ! A37   L(2,1,7,6,-2)         180.9261         calculate D2E/DX2 analytically  !
 ! A38   L(3,4,11,5,-2)        179.0739         calculate D2E/DX2 analytically  !
 ! D1    D(6,1,2,3)            -73.1391         calculate D2E/DX2 analytically  !
 ! D2    D(6,1,2,9)            106.8609         calculate D2E/DX2 analytically  !
 ! D3    D(8,1,2,3)            180.0            calculate D2E/DX2 analytically  !
 ! D4    D(8,1,2,9)              0.0            calculate D2E/DX2 analytically  !
 ! D5    D(2,1,6,5)             61.4026         calculate D2E/DX2 analytically  !
 ! D6    D(2,1,6,15)           179.9893         calculate D2E/DX2 analytically  !
 ! D7    D(2,1,6,16)           -57.1842         calculate D2E/DX2 analytically  !
 ! D8    D(7,1,6,5)           -119.5235         calculate D2E/DX2 analytically  !
 ! D9    D(7,1,6,15)            -0.9368         calculate D2E/DX2 analytically  !
 ! D10   D(7,1,6,16)           121.8897         calculate D2E/DX2 analytically  !
 ! D11   D(8,1,6,5)            132.6034         calculate D2E/DX2 analytically  !
 ! D12   D(8,1,6,15)          -108.8098         calculate D2E/DX2 analytically  !
 ! D13   D(8,1,6,16)            14.0166         calculate D2E/DX2 analytically  !
 ! D14   D(1,2,3,4)              0.0            calculate D2E/DX2 analytically  !
 ! D15   D(1,2,3,10)           180.0            calculate D2E/DX2 analytically  !
 ! D16   D(1,2,3,14)            84.1274         calculate D2E/DX2 analytically  !
 ! D17   D(9,2,3,4)            180.0            calculate D2E/DX2 analytically  !
 ! D18   D(9,2,3,10)             0.0            calculate D2E/DX2 analytically  !
 ! D19   D(9,2,3,14)           -95.8726         calculate D2E/DX2 analytically  !
 ! D20   D(2,3,4,5)             73.1391         calculate D2E/DX2 analytically  !
 ! D21   D(2,3,4,12)           180.0            calculate D2E/DX2 analytically  !
 ! D22   D(2,3,4,13)            73.1339         calculate D2E/DX2 analytically  !
 ! D23   D(10,3,4,5)          -106.8609         calculate D2E/DX2 analytically  !
 ! D24   D(10,3,4,12)            0.0            calculate D2E/DX2 analytically  !
 ! D25   D(10,3,4,13)         -106.8661         calculate D2E/DX2 analytically  !
 ! D26   D(14,3,4,5)           -25.1945         calculate D2E/DX2 analytically  !
 ! D27   D(14,3,4,12)           81.6663         calculate D2E/DX2 analytically  !
 ! D28   D(14,3,4,13)          -25.1998         calculate D2E/DX2 analytically  !
 ! D29   D(2,3,14,5)           -59.5131         calculate D2E/DX2 analytically  !
 ! D30   D(4,3,14,5)            59.0056         calculate D2E/DX2 analytically  !
 ! D31   D(10,3,14,5)          180.0            calculate D2E/DX2 analytically  !
 ! D32   D(3,4,5,6)            -61.4026         calculate D2E/DX2 analytically  !
 ! D33   D(3,4,5,14)            57.1842         calculate D2E/DX2 analytically  !
 ! D34   D(11,4,5,6)           119.5235         calculate D2E/DX2 analytically  !
 ! D35   D(11,4,5,14)         -121.8897         calculate D2E/DX2 analytically  !
 ! D36   D(12,4,5,6)          -132.6034         calculate D2E/DX2 analytically  !
 ! D37   D(12,4,5,14)          -14.0166         calculate D2E/DX2 analytically  !
 ! D38   D(4,5,6,1)              0.0            calculate D2E/DX2 analytically  !
 ! D39   D(4,5,6,15)           -90.0            calculate D2E/DX2 analytically  !
 ! D40   D(4,5,6,16)            90.0            calculate D2E/DX2 analytically  !
 ! D41   D(13,5,6,1)            90.0            calculate D2E/DX2 analytically  !
 ! D42   D(13,5,6,15)            0.0            calculate D2E/DX2 analytically  !
 ! D43   D(13,5,6,16)          180.0            calculate D2E/DX2 analytically  !
 ! D44   D(14,5,6,1)           -90.0            calculate D2E/DX2 analytically  !
 ! D45   D(14,5,6,15)          180.0            calculate D2E/DX2 analytically  !
 ! D46   D(14,5,6,16)            0.0            calculate D2E/DX2 analytically  !
 ! D47   D(6,5,13,11)         -107.3202         calculate D2E/DX2 analytically  !
 ! D48   D(11,5,13,4)            0.4576         calculate D2E/DX2 analytically  !
 ! D49   D(14,5,13,11)          72.6798         calculate D2E/DX2 analytically  !
 ! D50   D(4,5,14,3)           -30.8653         calculate D2E/DX2 analytically  !
 ! D51   D(6,5,14,3)            75.9973         calculate D2E/DX2 analytically  !
 ! D52   D(13,5,14,3)         -104.0027         calculate D2E/DX2 analytically  !
 --------------------------------------------------------------------------------
 Trust Radius=3.00D-01 FncErr=1.00D-07 GrdErr=1.00D-07 EigMax=2.50D+02 EigMin=1.00D-04
 Number of steps in this run=    100 maximum allowed number of steps=    100.
 GradGradGradGradGradGradGradGradGradGradGradGradGradGradGradGradGradGrad

                          Input orientation:                          
 ---------------------------------------------------------------------
 Center     Atomic      Atomic             Coordinates (Angstroms)
 Number     Number       Type             X           Y           Z
 ---------------------------------------------------------------------
      1          6           0       -0.670000    1.160000    0.000000
      2          6           0        0.000000    0.000000    0.000000
      3          6           0        1.470000    0.000000    0.000000
      4          6           0        2.140000    1.160000    0.000000
      5          6           0        1.405000    1.160000    2.100000
      6          6           0        0.065000    1.160000    2.100000
      7          1           0       -1.231000    2.095000    0.000000
      8          1           0       -1.430000    0.380000    0.000000
      9          1           0       -0.545000   -0.944000    0.000000
     10          1           0        2.015000   -0.944000    0.000000
     11          1           0        2.701000    2.095000    0.000000
     12          1           0        2.900000    0.380000    0.000000
     13          1           0        1.950000    2.104000    2.100000
     14          1           0        1.950000    0.216000    2.100000
     15          1           0       -0.480000    2.104000    2.100000
     16          1           0       -0.480000    0.216000    2.100000
 ---------------------------------------------------------------------
                    Distance matrix (angstroms):
                    1          2          3          4          5
     1  C    0.000000
     2  C    1.339589   0.000000
     3  C    2.434173   1.470000   0.000000
     4  C    2.810000   2.434173   1.339589   0.000000
     5  C    2.952224   2.780220   2.399964   2.224910   0.000000
     6  C    2.224910   2.399964   2.780220   2.952224   1.340000
     7  H    1.090388   2.429894   3.418249   3.498266   3.497531
     8  H    1.089036   1.479628   2.924791   3.654217   3.613257
     9  H    2.107710   1.090028   2.225165   3.411164   3.555182
    10  H    3.411164   2.225165   1.090028   2.107710   3.034620
    11  H    3.498266   3.418249   2.429894   1.090388   2.638909
    12  H    3.654217   2.924791   1.479628   1.089036   2.693218
    13  H    3.487913   3.555182   3.011182   2.310246   1.090028
    14  H    3.487913   2.873875   2.164961   2.310246   1.090028
    15  H    2.310246   3.011182   3.555182   3.487913   2.108165
    16  H    2.310246   2.164961   2.873875   3.487913   2.108165
                    6          7          8          9         10
     6  C    0.000000
     7  H    2.638909   0.000000
     8  H    2.693218   1.726507   0.000000
     9  H    3.034620   3.115464   1.592545   0.000000
    10  H    3.555182   4.446576   3.690664   2.560000   0.000000
    11  H    3.497531   3.932000   4.472850   4.446576   3.115464
    12  H    3.613257   4.472850   4.330000   3.690664   1.592545
    13  H    2.108165   3.811672   4.336655   4.463780   3.701963
    14  H    2.108165   4.249636   3.982624   3.461304   2.399964
    15  H    1.090028   2.230265   2.878311   3.701963   4.463780
    16  H    1.090028   2.916272   2.310713   2.399964   3.461304
                   11         12         13         14         15
    11  H    0.000000
    12  H    1.726507   0.000000
    13  H    2.230265   2.878311   0.000000
    14  H    2.916272   2.310713   1.888000   0.000000
    15  H    3.811672   4.336655   2.430000   3.077246   0.000000
    16  H    4.249636   3.982624   3.077246   2.430000   1.888000
                   16
    16  H    0.000000
 Symmetry turned off by external request.
 Stoichiometry    C6H10
 Framework group  CS[X(C6H10)]
 Deg. of freedom    21
 Full point group                 CS      NOp   2
 Rotational constants (GHZ):           4.3230902           4.0848434           2.6825182
 Standard basis: VSTO-6G (5D, 7F)
    34 basis functions,   204 primitive gaussians,    34 cartesian basis functions
    17 alpha electrons       17 beta electrons
       nuclear repulsion energy       145.9070086850 Hartrees.
 Integral buffers will be    131072 words long.
 Regular integral format.
 Two-electron integral symmetry is turned off.
 Do NDO integrals.
 One-electron integrals computed using PRISM.
 NBasis=    34 RedAO= F EigKep=  0.00D+00  NBF=    34
 NBsUse=    34 1.00D-04 EigRej=  0.00D+00 NBFU=    34
 Simple Huckel Guess.
 Keep J ints in memory in canonical form, NReq=862358.
 Overlap will be assumed to be unity.
 Requested convergence on RMS density matrix=1.00D-08 within 128 cycles.
 Requested convergence on MAX density matrix=1.00D-06.
 Requested convergence on             energy=1.00D-06.
 No special actions if energy rises.
 SCF Done:  E(RPM6) =  0.341159167013     A.U. after   14 cycles
            NFock= 13  Conv=0.84D-08     -V/T= 1.0067
 Range of M.O.s used for correlation:     1    34
 NBasis=    34 NAE=    17 NBE=    17 NFC=     0 NFV=     0
 NROrb=     34 NOA=    17 NOB=    17 NVA=    17 NVB=    17
 Symmetrizing basis deriv contribution to polar:
 IMax=3 JMax=2 DiffMx= 0.00D+00
 G2DrvN: will do    17 centers at a time, making    1 passes.
 Calling FoFCou, ICntrl=  3107 FMM=F I1Cent=   0 AccDes= 0.00D+00.
 End of G2Drv F.D. properties file   721 does not exist.
 End of G2Drv F.D. properties file   722 does not exist.
 End of G2Drv F.D. properties file   788 does not exist.
          IDoAtm=1111111111111111
          Differentiating once with respect to nuclear coordinates.
          Electric field/nuclear overlap derivatives assumed to be zero.
 Keep J ints in memory in canonical form, NReq=864025.
          There are    51 degrees of freedom in the 1st order CPHF.  IDoFFX=5 NUNeed=    51.
 LinEq1:  Iter=  0 NonCon=    48 RMS=1.73D-02 Max=1.14D-01 NDo=    48
 AX will form    51 AO Fock derivatives at one time.
 LinEq1:  Iter=  1 NonCon=    48 RMS=2.42D-03 Max=2.58D-02 NDo=    51
 LinEq1:  Iter=  2 NonCon=    48 RMS=4.51D-04 Max=3.68D-03 NDo=    51
 LinEq1:  Iter=  3 NonCon=    48 RMS=9.54D-05 Max=7.83D-04 NDo=    51
 LinEq1:  Iter=  4 NonCon=    48 RMS=1.54D-05 Max=1.21D-04 NDo=    51
 LinEq1:  Iter=  5 NonCon=    48 RMS=2.64D-06 Max=2.04D-05 NDo=    51
 LinEq1:  Iter=  6 NonCon=    48 RMS=5.00D-07 Max=3.82D-06 NDo=    51
 LinEq1:  Iter=  7 NonCon=    38 RMS=8.91D-08 Max=5.58D-07 NDo=    51
 LinEq1:  Iter=  8 NonCon=     6 RMS=1.24D-08 Max=7.89D-08 NDo=    38
 LinEq1:  Iter=  9 NonCon=     0 RMS=1.87D-09 Max=1.47D-08 NDo=     6
 Linear equations converged to 1.000D-08 1.000D-07 after     9 iterations.
 End of Minotr F.D. properties file   721 does not exist.
 End of Minotr F.D. properties file   722 does not exist.
 End of Minotr F.D. properties file   788 does not exist.

 **********************************************************************

            Population analysis using the SCF Density.

 **********************************************************************

 Alpha  occ. eigenvalues --   -1.10138  -1.01094  -0.94405  -0.78774  -0.72664
 Alpha  occ. eigenvalues --   -0.66262  -0.62725  -0.58625  -0.55202  -0.50071
 Alpha  occ. eigenvalues --   -0.50071  -0.44271  -0.43098  -0.40710  -0.36284
 Alpha  occ. eigenvalues --   -0.33642  -0.31765
 Alpha virt. eigenvalues --    0.01909   0.06299   0.08598   0.15903   0.16027
 Alpha virt. eigenvalues --    0.17552   0.20366   0.21788   0.22312   0.22390
 Alpha virt. eigenvalues --    0.22738   0.23412   0.24219   0.24592   0.25086
 Alpha virt. eigenvalues --    0.25532   0.26040
          Condensed to atoms (all electrons):
               1          2          3          4          5          6
     1  C    4.362666   0.000000   0.000000   0.000000   0.000000   0.000000
     2  C    0.000000   4.093935   0.000000   0.000000   0.000000   0.000000
     3  C    0.000000   0.000000   4.093935   0.000000   0.000000   0.000000
     4  C    0.000000   0.000000   0.000000   4.362666   0.000000   0.000000
     5  C    0.000000   0.000000   0.000000   0.000000   4.300609   0.000000
     6  C    0.000000   0.000000   0.000000   0.000000   0.000000   4.300609
     7  H    0.000000   0.000000   0.000000   0.000000   0.000000   0.000000
     8  H    0.000000   0.000000   0.000000   0.000000   0.000000   0.000000
     9  H    0.000000   0.000000   0.000000   0.000000   0.000000   0.000000
    10  H    0.000000   0.000000   0.000000   0.000000   0.000000   0.000000
    11  H    0.000000   0.000000   0.000000   0.000000   0.000000   0.000000
    12  H    0.000000   0.000000   0.000000   0.000000   0.000000   0.000000
    13  H    0.000000   0.000000   0.000000   0.000000   0.000000   0.000000
    14  H    0.000000   0.000000   0.000000   0.000000   0.000000   0.000000
    15  H    0.000000   0.000000   0.000000   0.000000   0.000000   0.000000
    16  H    0.000000   0.000000   0.000000   0.000000   0.000000   0.000000
               7          8          9         10         11         12
     1  C    0.000000   0.000000   0.000000   0.000000   0.000000   0.000000
     2  C    0.000000   0.000000   0.000000   0.000000   0.000000   0.000000
     3  C    0.000000   0.000000   0.000000   0.000000   0.000000   0.000000
     4  C    0.000000   0.000000   0.000000   0.000000   0.000000   0.000000
     5  C    0.000000   0.000000   0.000000   0.000000   0.000000   0.000000
     6  C    0.000000   0.000000   0.000000   0.000000   0.000000   0.000000
     7  H    0.792954   0.000000   0.000000   0.000000   0.000000   0.000000
     8  H    0.000000   0.845346   0.000000   0.000000   0.000000   0.000000
     9  H    0.000000   0.000000   0.886596   0.000000   0.000000   0.000000
    10  H    0.000000   0.000000   0.000000   0.886596   0.000000   0.000000
    11  H    0.000000   0.000000   0.000000   0.000000   0.792954   0.000000
    12  H    0.000000   0.000000   0.000000   0.000000   0.000000   0.845346
    13  H    0.000000   0.000000   0.000000   0.000000   0.000000   0.000000
    14  H    0.000000   0.000000   0.000000   0.000000   0.000000   0.000000
    15  H    0.000000   0.000000   0.000000   0.000000   0.000000   0.000000
    16  H    0.000000   0.000000   0.000000   0.000000   0.000000   0.000000
              13         14         15         16
     1  C    0.000000   0.000000   0.000000   0.000000
     2  C    0.000000   0.000000   0.000000   0.000000
     3  C    0.000000   0.000000   0.000000   0.000000
     4  C    0.000000   0.000000   0.000000   0.000000
     5  C    0.000000   0.000000   0.000000   0.000000
     6  C    0.000000   0.000000   0.000000   0.000000
     7  H    0.000000   0.000000   0.000000   0.000000
     8  H    0.000000   0.000000   0.000000   0.000000
     9  H    0.000000   0.000000   0.000000   0.000000
    10  H    0.000000   0.000000   0.000000   0.000000
    11  H    0.000000   0.000000   0.000000   0.000000
    12  H    0.000000   0.000000   0.000000   0.000000
    13  H    0.856549   0.000000   0.000000   0.000000
    14  H    0.000000   0.861345   0.000000   0.000000
    15  H    0.000000   0.000000   0.856549   0.000000
    16  H    0.000000   0.000000   0.000000   0.861345
 Mulliken charges:
               1
     1  C   -0.362666
     2  C   -0.093935
     3  C   -0.093935
     4  C   -0.362666
     5  C   -0.300609
     6  C   -0.300609
     7  H    0.207046
     8  H    0.154654
     9  H    0.113404
    10  H    0.113404
    11  H    0.207046
    12  H    0.154654
    13  H    0.143451
    14  H    0.138655
    15  H    0.143451
    16  H    0.138655
 Sum of Mulliken charges =   0.00000
 Mulliken charges with hydrogens summed into heavy atoms:
               1
     1  C   -0.000966
     2  C    0.019469
     3  C    0.019469
     4  C   -0.000966
     5  C   -0.018503
     6  C   -0.018503
 APT charges:
               1
     1  C   -0.362666
     2  C   -0.093935
     3  C   -0.093935
     4  C   -0.362666
     5  C   -0.300609
     6  C   -0.300609
     7  H    0.207046
     8  H    0.154654
     9  H    0.113404
    10  H    0.113404
    11  H    0.207046
    12  H    0.154654
    13  H    0.143451
    14  H    0.138655
    15  H    0.143451
    16  H    0.138655
 Sum of APT charges =   0.00000
 APT charges with hydrogens summed into heavy atoms:
               1
     1  C   -0.000966
     2  C    0.019469
     3  C    0.019469
     4  C   -0.000966
     5  C   -0.018503
     6  C   -0.018503
 Charge=              0.0000 electrons
 Dipole moment (field-independent basis, Debye):
    X=              0.0000    Y=             -0.9344    Z=             -0.4154  Tot=              1.0226
 N-N= 1.459070086850D+02 E-N=-2.199911617072D+02  KE=-5.054452115943D+01
  Exact polarizability:       0.000       0.000       0.000       0.000       0.000       0.000
 Approx polarizability:      53.206       0.000      46.717       0.000       3.057      15.298
 Calling FoFJK, ICntrl=    100127 FMM=F ISym2X=0 I1Cent= 0 IOpClX= 0 NMat=1 NMatS=1 NMatT=0.
 -------------------------------------------------------------------
 Center     Atomic                   Forces (Hartrees/Bohr)
 Number     Number              X              Y              Z
 -------------------------------------------------------------------
      1        6          -0.057842314   -0.014567748   -0.014176263
      2        6           0.107051944   -0.006417066   -0.031247440
      3        6          -0.107051944   -0.006417066   -0.031247440
      4        6           0.057842314   -0.014567748   -0.014176263
      5        6           0.001210259    0.009431935    0.026551140
      6        6          -0.001210259    0.009431935    0.026551140
      7        1           0.039311724   -0.003443421   -0.004728510
      8        1          -0.105899920    0.022000587   -0.000404408
      9        1           0.008766727   -0.007583295   -0.000310245
     10        1          -0.008766727   -0.007583295   -0.000310245
     11        1          -0.039311724   -0.003443421   -0.004728510
     12        1           0.105899920    0.022000587   -0.000404408
     13        1           0.003130578   -0.006460498    0.005923178
     14        1           0.004630182    0.007039506    0.018392549
     15        1          -0.003130578   -0.006460498    0.005923178
     16        1          -0.004630182    0.007039506    0.018392549
 -------------------------------------------------------------------
 Cartesian Forces:  Max     0.107051944 RMS     0.035905535
 FormGI is forming the generalized inverse of G from B-inverse, IUseBI=4.

 GradGradGradGradGradGradGradGradGradGradGradGradGradGradGradGradGradGrad
 Berny optimization.
 Internal  Forces:  Max     0.065962803 RMS     0.021849114
 Search for a local minimum.
 Step number   1 out of a maximum of  100
 All quantities printed in internal units (Hartrees-Bohrs-Radians)
 Mixed Optimization -- RFO/linear search
 Second derivative matrix not updated -- analytic derivatives used.
 ITU=  0
     Eigenvalues ---   -0.01679  -0.00838   0.00012   0.00415   0.00772
     Eigenvalues ---    0.00795   0.00983   0.01289   0.01731   0.01891
     Eigenvalues ---    0.02224   0.02358   0.02576   0.02815   0.03897
     Eigenvalues ---    0.04175   0.04716   0.04890   0.05836   0.06442
     Eigenvalues ---    0.07408   0.08617   0.10102   0.11693   0.12579
     Eigenvalues ---    0.13220   0.21707   0.22188   0.24504   0.24651
     Eigenvalues ---    0.25625   0.25937   0.26028   0.26982   0.27168
     Eigenvalues ---    0.27723   0.35194   0.63835   0.69037   0.77139
     Eigenvalues --- 1000.000001000.000001000.000001000.000001000.00000
     Eigenvalues --- 1000.000001000.000001000.000001000.000001000.00000
     Eigenvalues --- 1000.000001000.000001000.000001000.000001000.00000
     Eigenvalues --- 1000.000001000.000001000.000001000.000001000.00000
     Eigenvalues --- 1000.000001000.000001000.000001000.000001000.00000
     Eigenvalues --- 1000.000001000.000001000.000001000.000001000.00000
     Eigenvalues --- 1000.000001000.000001000.000001000.000001000.00000
     Eigenvalues --- 1000.000001000.000001000.000001000.000001000.00000
     Eigenvalues --- 1000.000001000.000001000.000001000.000001000.00000
     Eigenvalues --- 1000.000001000.000001000.000001000.000001000.00000
     Eigenvalues --- 1000.000001000.000001000.000001000.000001000.00000
     Eigenvalues --- 1000.000001000.000001000.000001000.000001000.00000
     Eigenvalues --- 1000.000001000.000001000.000001000.000001000.00000
     Eigenvalues --- 1000.000001000.000001000.000001000.00000
 RFO step:  Lambda=-1.36092065D-01 EMin=-1.67879210D-02
 Linear search not attempted -- first point.
 Maximum step size (   0.300) exceeded in Quadratic search.
    -- Step size scaled by   0.418
 Iteration  1 RMS(Cart)=  0.04518223 RMS(Int)=  0.00295239
 Iteration  2 RMS(Cart)=  0.00274679 RMS(Int)=  0.00123119
 Iteration  3 RMS(Cart)=  0.00001086 RMS(Int)=  0.00123114
 Iteration  4 RMS(Cart)=  0.00000002 RMS(Int)=  0.00123114
 Iteration  1 RMS(Cart)=  0.00004117 RMS(Int)=  0.00004548
 Iteration  2 RMS(Cart)=  0.00001891 RMS(Int)=  0.00005070
 Iteration  3 RMS(Cart)=  0.00001047 RMS(Int)=  0.00005712
 Iteration  4 RMS(Cart)=  0.00000578 RMS(Int)=  0.00006139
 Iteration  5 RMS(Cart)=  0.00000318 RMS(Int)=  0.00006390
 Iteration  6 RMS(Cart)=  0.00000174 RMS(Int)=  0.00006533
 Iteration  7 RMS(Cart)=  0.00000096 RMS(Int)=  0.00006612
 Variable       Old X    -DE/DX   Delta X   Delta X   Delta X     New X
                                 (Linear)    (Quad)   (Total)
    R1        2.53146   0.06396   0.00000   0.01293   0.01311   2.54457
    R2        4.20447   0.05027   0.00000   0.00000   0.00000   4.20447
    R3        2.06053  -0.02318   0.00000  -0.02444  -0.02444   2.03609
    R4        2.05798   0.05815   0.00000   0.03723   0.03723   2.09521
    R5        2.77790  -0.00959   0.00000  -0.02419  -0.02369   2.75420
    R6        2.05985   0.00218   0.00000  -0.00361  -0.00361   2.05624
    R7        2.53146   0.05121   0.00000   0.00766   0.00808   2.53954
    R8        2.05985   0.00218   0.00000  -0.00231  -0.00231   2.05755
    R9        4.09118   0.03219   0.00000   0.09428   0.09485   4.18603
   R10        4.20447   0.03127   0.00000   0.00000  -0.00001   4.20446
   R11        2.06053  -0.02455   0.00000  -0.02338  -0.02319   2.03735
   R12        2.05798   0.05815   0.00000   0.03779   0.03779   2.09577
   R13        4.36573   0.00408   0.00000  -0.00167  -0.00204   4.36369
   R14        2.53223   0.02717   0.00000   0.01494   0.01445   2.54668
   R15        2.05985  -0.00190   0.00000  -0.00666  -0.00669   2.05317
   R16        2.05985   0.00081   0.00000  -0.00333  -0.00274   2.05711
   R17        2.05985  -0.00403   0.00000  -0.00353  -0.00353   2.05632
   R18        2.05985  -0.00378   0.00000  -0.00752  -0.00752   2.05233
   R19        4.21459  -0.00243   0.00000   0.05219   0.05277   4.26736
    A1        1.40481  -0.00276   0.00000   0.05036   0.05090   1.45571
    A2        1.29619   0.06596   0.00000   0.09112   0.09599   1.39218
    A3        1.74159  -0.00646   0.00000   0.00483   0.00470   1.74629
    A4        1.80343   0.02445   0.00000  -0.05728  -0.06229   1.74114
    A5        1.82876  -0.02123   0.00000  -0.01596  -0.01467   1.81410
    A6        2.09457   0.01902   0.00000   0.01467   0.01336   2.10794
    A7        2.09423   0.00221   0.00000  -0.00361  -0.00381   2.09043
    A8        2.09438  -0.02124   0.00000  -0.01106  -0.01119   2.08319
    A9        2.09457   0.02498   0.00000   0.02032   0.01926   2.11383
   A10        2.09438  -0.01783   0.00000  -0.01259  -0.01272   2.08166
   A11        1.79437   0.00416   0.00000  -0.00125  -0.00113   1.79324
   A12        2.09423  -0.00715   0.00000  -0.00773  -0.00785   2.08638
   A13        1.37221  -0.01210   0.00000  -0.04674  -0.04629   1.32592
   A14        1.54635   0.00502   0.00000   0.00054   0.00079   1.54714
   A15        1.40481  -0.00613   0.00000   0.03935   0.03967   1.44448
   A16        1.29619   0.06581   0.00000   0.09374   0.09797   1.39416
   A17        1.88883  -0.00814   0.00000   0.03786   0.03809   1.92692
   A18        1.74159  -0.00273   0.00000   0.02749   0.02697   1.76856
   A19        1.80343   0.02051   0.00000  -0.05885  -0.06323   1.74020
   A20        1.82876  -0.02613   0.00000  -0.02139  -0.01880   1.80996
   A21        1.92843  -0.00500   0.00000  -0.09971  -0.10346   1.82497
   A22        1.90747   0.01851   0.00000   0.01523   0.01470   1.92217
   A23        1.40486  -0.00479   0.00000  -0.01384  -0.01376   1.39110
   A24        2.09438   0.00829   0.00000   0.00238   0.00285   2.09723
   A25        2.09438   0.00063   0.00000   0.00633   0.00626   2.10064
   A26        2.09442  -0.00892   0.00000  -0.00870  -0.00912   2.08531
   A27        1.90747   0.00426   0.00000  -0.00316  -0.00362   1.90385
   A28        1.40486   0.00229   0.00000   0.01947   0.01979   1.42466
   A29        1.40486   0.00219   0.00000  -0.00383  -0.00365   1.40121
   A30        2.09438  -0.00542   0.00000  -0.01362  -0.01336   2.08102
   A31        2.09438   0.00954   0.00000   0.01930   0.01894   2.11332
   A32        2.09442  -0.00412   0.00000  -0.00568  -0.00570   2.08872
   A33        1.73642   0.00786   0.00000  -0.00578  -0.00697   1.72945
   A34        1.54635   0.00195   0.00000   0.00625   0.00597   1.55232
   A35        3.14640  -0.00922   0.00000   0.05519   0.05560   3.20200
   A36        3.14640  -0.00886   0.00000   0.06684   0.06663   3.21303
   A37        3.15776  -0.04457   0.00000  -0.09658  -0.09592   3.06184
   A38        3.12543   0.03932   0.00000   0.09711   0.09650   3.22193
    D1       -1.27652   0.01406   0.00000   0.03358   0.03500  -1.24151
    D2        1.86507   0.00508   0.00000  -0.02825  -0.02684   1.83824
    D3        3.14159   0.00410   0.00000   0.13604   0.13376  -3.00783
    D4        0.00000  -0.00488   0.00000   0.07421   0.07192   0.07192
    D5        1.07168  -0.02585   0.00000  -0.03930  -0.03908   1.03260
    D6        3.14141  -0.03089   0.00000  -0.04775  -0.04711   3.09429
    D7       -0.99805  -0.03663   0.00000  -0.05858  -0.05802  -1.05607
    D8       -2.08608   0.01872   0.00000   0.05728   0.05684  -2.02924
    D9       -0.01635   0.01368   0.00000   0.04884   0.04880   0.03245
   D10        2.12738   0.00794   0.00000   0.03801   0.03790   2.16528
   D11        2.31437   0.03689   0.00000   0.08747   0.08629   2.40065
   D12       -1.89909   0.03185   0.00000   0.07903   0.07825  -1.82084
   D13        0.24464   0.02611   0.00000   0.06820   0.06734   0.31198
   D14        0.00000  -0.00516   0.00000  -0.00805  -0.00815  -0.00815
   D15        3.14159  -0.00939   0.00000  -0.06361  -0.06344   3.07815
   D16        1.46830  -0.01274   0.00000  -0.05987  -0.06008   1.40822
   D17        3.14159   0.00382   0.00000   0.05378   0.05344  -3.08816
   D18        0.00000  -0.00041   0.00000  -0.00178  -0.00186  -0.00186
   D19       -1.67329  -0.00376   0.00000   0.00197   0.00151  -1.67179
   D20        1.27652  -0.00732   0.00000  -0.02994  -0.03089   1.24563
   D21        3.14159  -0.00038   0.00000  -0.13097  -0.12860   3.01299
   D22        1.27643  -0.01362   0.00000  -0.04109  -0.04184   1.23459
   D23       -1.86507  -0.00309   0.00000   0.02562   0.02455  -1.84053
   D24        0.00000   0.00385   0.00000  -0.07541  -0.07316  -0.07316
   D25       -1.86517  -0.00939   0.00000   0.01447   0.01360  -1.85156
   D26       -0.43973  -0.00248   0.00000  -0.00016  -0.00047  -0.44020
   D27        1.42535   0.00446   0.00000  -0.10119  -0.09818   1.32717
   D28       -0.43982  -0.00878   0.00000  -0.01132  -0.01142  -0.45124
   D29       -1.03870  -0.00480   0.00000  -0.00011  -0.00024  -1.03894
   D30        1.02984   0.01871   0.00000   0.01399   0.01360   1.04344
   D31        3.14159   0.01190   0.00000   0.01287   0.01279  -3.12881
   D32       -1.07168   0.01804   0.00000   0.02534   0.02522  -1.04645
   D33        0.99805   0.01723   0.00000   0.02779   0.02752   1.02557
   D34        2.08608  -0.02129   0.00000  -0.07177  -0.07128   2.01480
   D35       -2.12738  -0.02209   0.00000  -0.06932  -0.06898  -2.19636
   D36       -2.31437  -0.04452   0.00000  -0.10122  -0.10007  -2.41444
   D37       -0.24464  -0.04532   0.00000  -0.09877  -0.09778  -0.34241
   D38        0.00000   0.00358   0.00000   0.00751   0.00774   0.00774
   D39       -1.57080   0.00026   0.00000  -0.00939  -0.00929  -1.58009
   D40        1.57080   0.01202   0.00000   0.00782   0.00776   1.57856
   D41        1.57080   0.00299   0.00000   0.01738   0.01734   1.58813
   D42        0.00000  -0.00034   0.00000   0.00049   0.00031   0.00031
   D43        3.14159   0.01142   0.00000   0.01770   0.01736  -3.12423
   D44       -1.57080  -0.00155   0.00000   0.01320   0.01363  -1.55716
   D45        3.14159  -0.00487   0.00000  -0.00370  -0.00339   3.13820
   D46        0.00000   0.00689   0.00000   0.01351   0.01366   0.01366
   D47       -1.87309  -0.00188   0.00000   0.01885   0.01848  -1.85462
   D48        0.00799  -0.01300   0.00000  -0.03655  -0.03549  -0.02751
   D49        1.26850   0.00265   0.00000   0.02303   0.02215   1.29065
   D50       -0.53870  -0.01339   0.00000  -0.00260  -0.00191  -0.54062
   D51        1.32640   0.00534   0.00000   0.00734   0.00743   1.33384
   D52       -1.81519   0.00081   0.00000   0.00316   0.00375  -1.81143
         Item               Value     Threshold  Converged?
 Maximum Force            0.064859     0.000015     NO 
 RMS     Force            0.021026     0.000010     NO 
 Maximum Displacement     0.213485     0.000060     NO 
 RMS     Displacement     0.045574     0.000040     NO 
 Predicted change in Energy=-5.599839D-02
 GradGradGradGradGradGradGradGradGradGradGradGradGradGradGradGradGradGrad

                          Input orientation:                          
 ---------------------------------------------------------------------
 Center     Atomic      Atomic             Coordinates (Angstroms)
 Number     Number       Type             X           Y           Z
 ---------------------------------------------------------------------
      1          6           0       -0.683932    1.137964    0.008768
      2          6           0        0.009737   -0.014312   -0.056162
      3          6           0        1.467182   -0.008632   -0.052131
      4          6           0        2.156961    1.143191    0.006892
      5          6           0        1.402562    1.160676    2.099924
      6          6           0        0.054944    1.165957    2.107221
      7          1           0       -1.185607    2.090836   -0.026756
      8          1           0       -1.509642    0.404991    0.110006
      9          1           0       -0.520035   -0.964752   -0.054048
     10          1           0        2.003214   -0.956325   -0.045302
     11          1           0        2.659672    2.095516   -0.045038
     12          1           0        2.985818    0.414016    0.112972
     13          1           0        1.952158    2.097908    2.099453
     14          1           0        1.949038    0.219209    2.097939
     15          1           0       -0.472734    2.117597    2.112317
     16          1           0       -0.509337    0.238161    2.123946
 ---------------------------------------------------------------------
                    Distance matrix (angstroms):
                    1          2          3          4          5
     1  C    0.000000
     2  C    1.346526   0.000000
     3  C    2.438377   1.457462   0.000000
     4  C    2.840898   2.440155   1.343865   0.000000
     5  C    2.954134   2.822988   2.450061   2.224905   0.000000
     6  C    2.224911   2.464813   2.834938   2.971594   1.347647
     7  H    1.077453   2.421024   3.383149   3.474467   3.476576
     8  H    1.108736   1.584909   3.009792   3.741596   3.607182
     9  H    2.110029   1.088117   2.205266   3.407850   3.585166
    10  H    3.407305   2.204872   1.088807   2.105785   3.073186
    11  H    3.478432   3.387278   2.418578   1.078118   2.656146
    12  H    3.741928   3.011499   1.584975   1.109033   2.648052
    13  H    3.498775   3.589031   3.049922   2.309164   1.086490
    14  H    3.484434   2.907847   2.215152   2.295528   1.088577
    15  H    2.330065   3.078979   3.601244   3.506790   2.105371
    16  H    2.305235   2.255227   2.950059   3.522803   2.122962
                    6          7          8          9         10
     6  C    0.000000
     7  H    2.635949   0.000000
     8  H    2.648748   1.722143   0.000000
     9  H    3.088949   3.127355   1.697772   0.000000
    10  H    3.596275   4.410682   3.770605   2.523278   0.000000
    11  H    3.504412   3.845325   4.501676   4.413146   3.121646
    12  H    3.623874   4.498003   4.495469   3.770928   1.693634
    13  H    2.113767   3.790301   4.336810   4.486556   3.732415
    14  H    2.117548   4.224135   3.993602   3.482690   2.445056
    15  H    1.088159   2.254892   2.831509   3.767791   4.498293
    16  H    1.086047   2.918092   2.254860   2.488126   3.527796
                   11         12         13         14         15
    11  H    0.000000
    12  H    1.720111   0.000000
    13  H    2.258190   2.801794   0.000000
    14  H    2.935622   2.247878   1.878702   0.000000
    15  H    3.803503   4.342943   2.425006   3.077184   0.000000
    16  H    4.265780   4.036218   3.085161   2.458586   1.879828
                   16
    16  H    0.000000
 Symmetry turned off by external request.
 Stoichiometry    C6H10
 Framework group  C1[X(C6H10)]
 Deg. of freedom    42
 Full point group                 C1      NOp   1
 Rotational constants (GHZ):           4.2469071           4.0676016           2.6231030
 Standard basis: VSTO-6G (5D, 7F)
    34 basis functions,   204 primitive gaussians,    34 cartesian basis functions
    17 alpha electrons       17 beta electrons
       nuclear repulsion energy       145.2764505249 Hartrees.
 Integral buffers will be    131072 words long.
 Regular integral format.
 Two-electron integral symmetry is turned off.
 Do NDO integrals.
 One-electron integrals computed using PRISM.
 NBasis=    34 RedAO= F EigKep=  0.00D+00  NBF=    34
 NBsUse=    34 1.00D-04 EigRej=  0.00D+00 NBFU=    34
 Initial guess from the checkpoint file:  "C:\Users\al6323\OneDrive - Imperial College London\Desktop\TSR20251111\TS_guess_IRC.chk"
 B after Tr=     0.001826   -0.008765   -0.022622
         Rot=    0.999999   -0.001352    0.000403   -0.000423 Ang=  -0.17 deg.
 Keep J ints in memory in canonical form, NReq=862358.
 Overlap will be assumed to be unity.
 Requested convergence on RMS density matrix=1.00D-08 within 128 cycles.
 Requested convergence on MAX density matrix=1.00D-06.
 Requested convergence on             energy=1.00D-06.
 No special actions if energy rises.
 SCF Done:  E(RPM6) =  0.285425939660     A.U. after   15 cycles
            NFock= 14  Conv=0.47D-08     -V/T= 1.0057
 Calling FoFJK, ICntrl=      2127 FMM=F ISym2X=0 I1Cent= 0 IOpClX= 0 NMat=1 NMatS=1 NMatT=0.
 -------------------------------------------------------------------
 Center     Atomic                   Forces (Hartrees/Bohr)
 Number     Number              X              Y              Z
 -------------------------------------------------------------------
      1        6          -0.058136042   -0.036363744   -0.010589102
      2        6           0.079910895    0.006464481   -0.033027284
      3        6          -0.081337286    0.002676000   -0.034971343
      4        6           0.060070758   -0.032802555   -0.011757846
      5        6          -0.006379711    0.006557714    0.020915176
      6        6           0.006895372    0.010195544    0.020545315
      7        1           0.036102854    0.000142646   -0.004507092
      8        1          -0.074330791    0.025985517    0.006014375
      9        1           0.006073570   -0.005071582   -0.000024593
     10        1          -0.006310203   -0.005419236    0.000184880
     11        1          -0.036364244    0.000025292   -0.003908646
     12        1           0.074225561    0.026271543    0.006205292
     13        1           0.003099601   -0.004700298    0.006102457
     14        1           0.003472116    0.005962553    0.017396126
     15        1          -0.003953008   -0.005446521    0.005823886
     16        1          -0.003039442    0.005522646    0.015598398
 -------------------------------------------------------------------
 Cartesian Forces:  Max     0.081337286 RMS     0.029631513

 GradGradGradGradGradGradGradGradGradGradGradGradGradGradGradGradGradGrad
 Berny optimization.
 Using GEDIIS/GDIIS optimizer.
 FormGI is forming the generalized inverse of G from B-inverse, IUseBI=4.
 Internal  Forces:  Max     0.051567055 RMS     0.016741039
 Search for a local minimum.
 Step number   2 out of a maximum of  100
 All quantities printed in internal units (Hartrees-Bohrs-Radians)
 Mixed Optimization -- RFO/linear search
 Update second derivatives using D2CorX and points    1    2
 DE= -5.57D-02 DEPred=-5.60D-02 R= 9.95D-01
 TightC=F SS=  1.41D+00  RLast= 4.79D-01 DXNew= 5.0454D-01 1.4369D+00
 Trust test= 9.95D-01 RLast= 4.79D-01 DXMaxT set to 5.05D-01
 ITU=  1  0
 Use linear search instead of GDIIS.
 Linear search step of   0.611 exceeds DXMaxT=   0.505 but not scaled.
 Quartic linear search produced a step of  2.00000.
 Iteration  1 RMS(Cart)=  0.08854695 RMS(Int)=  0.01447721
 Iteration  2 RMS(Cart)=  0.01387170 RMS(Int)=  0.00660657
 Iteration  3 RMS(Cart)=  0.00032575 RMS(Int)=  0.00659855
 Iteration  4 RMS(Cart)=  0.00000216 RMS(Int)=  0.00659855
 Iteration  5 RMS(Cart)=  0.00000002 RMS(Int)=  0.00659855
 Iteration  1 RMS(Cart)=  0.00015988 RMS(Int)=  0.00018303
 Iteration  2 RMS(Cart)=  0.00007812 RMS(Int)=  0.00020418
 Iteration  3 RMS(Cart)=  0.00004318 RMS(Int)=  0.00023015
 Iteration  4 RMS(Cart)=  0.00002371 RMS(Int)=  0.00024731
 Iteration  5 RMS(Cart)=  0.00001297 RMS(Int)=  0.00025738
 Iteration  6 RMS(Cart)=  0.00000709 RMS(Int)=  0.00026306
 Iteration  7 RMS(Cart)=  0.00000387 RMS(Int)=  0.00026622
 Iteration  8 RMS(Cart)=  0.00000212 RMS(Int)=  0.00026796
 Iteration  9 RMS(Cart)=  0.00000116 RMS(Int)=  0.00026891
 Iteration 10 RMS(Cart)=  0.00000063 RMS(Int)=  0.00026943
 Variable       Old X    -DE/DX   Delta X   Delta X   Delta X     New X
                                 (Linear)    (Quad)   (Total)
    R1        2.54457   0.04057   0.02622   0.00000   0.02776   2.57233
    R2        4.20447   0.04184   0.00000   0.00000   0.00000   4.20447
    R3        2.03609  -0.01654  -0.04889   0.00000  -0.04889   1.98720
    R4        2.09521   0.03873   0.07445   0.00000   0.07445   2.16966
    R5        2.75420  -0.00659  -0.04739   0.00000  -0.04433   2.70987
    R6        2.05624   0.00147  -0.00722   0.00000  -0.00722   2.04902
    R7        2.53954   0.03321   0.01616   0.00000   0.01966   2.55920
    R8        2.05755   0.00161  -0.00462   0.00000  -0.00462   2.05293
    R9        4.18603   0.02924   0.18970   0.00000   0.19018   4.37622
   R10        4.20446   0.02533  -0.00002   0.00000   0.00000   4.20446
   R11        2.03735  -0.01785  -0.04637   0.00000  -0.04510   1.99225
   R12        2.09577   0.03879   0.07557   0.00000   0.07557   2.17134
   R13        4.36369   0.00441  -0.00409   0.00000  -0.00620   4.35749
   R14        2.54668   0.01710   0.02890   0.00000   0.02583   2.57252
   R15        2.05317  -0.00171  -0.01337   0.00000  -0.01366   2.03950
   R16        2.05711   0.00054  -0.00548   0.00000  -0.00352   2.05360
   R17        2.05632  -0.00282  -0.00707   0.00000  -0.00707   2.04926
   R18        2.05233  -0.00290  -0.01505   0.00000  -0.01505   2.03729
   R19        4.26736  -0.00189   0.10554   0.00000   0.10848   4.37584
    A1        1.45571  -0.00012   0.10180   0.00000   0.10211   1.55782
    A2        1.39218   0.05154   0.19199   0.00000   0.21790   1.61008
    A3        1.74629  -0.00649   0.00940   0.00000   0.00947   1.75576
    A4        1.74114   0.01570  -0.12459   0.00000  -0.15065   1.59048
    A5        1.81410  -0.01388  -0.02933   0.00000  -0.02226   1.79184
    A6        2.10794   0.01452   0.02673   0.00000   0.02005   2.12798
    A7        2.09043   0.00053  -0.00762   0.00000  -0.00945   2.08097
    A8        2.08319  -0.01548  -0.02239   0.00000  -0.02324   2.05995
    A9        2.11383   0.01916   0.03852   0.00000   0.03209   2.14592
   A10        2.08166  -0.01327  -0.02544   0.00000  -0.02586   2.05580
   A11        1.79324   0.00310  -0.00226   0.00000  -0.00163   1.79161
   A12        2.08638  -0.00605  -0.01570   0.00000  -0.01626   2.07012
   A13        1.32592  -0.00921  -0.09258   0.00000  -0.08867   1.23724
   A14        1.54714   0.00383   0.00159   0.00000   0.00213   1.54927
   A15        1.44448  -0.00330   0.07933   0.00000   0.07915   1.52363
   A16        1.39416   0.05157   0.19594   0.00000   0.21760   1.61176
   A17        1.92692  -0.00517   0.07617   0.00000   0.07544   2.00236
   A18        1.76856  -0.00361   0.05394   0.00000   0.05103   1.81959
   A19        1.74020   0.01338  -0.12645   0.00000  -0.14864   1.59156
   A20        1.80996  -0.01729  -0.03760   0.00000  -0.02228   1.78768
   A21        1.82497  -0.00656  -0.20692   0.00000  -0.22526   1.59970
   A22        1.92217   0.01460   0.02940   0.00000   0.02589   1.94806
   A23        1.39110  -0.00444  -0.02753   0.00000  -0.02603   1.36507
   A24        2.09723   0.00646   0.00571   0.00000   0.00859   2.10583
   A25        2.10064   0.00113   0.01252   0.00000   0.01181   2.11245
   A26        2.08531  -0.00760  -0.01824   0.00000  -0.02043   2.06488
   A27        1.90385   0.00187  -0.00725   0.00000  -0.00872   1.89512
   A28        1.42466   0.00326   0.03958   0.00000   0.04040   1.46505
   A29        1.40121   0.00212  -0.00730   0.00000  -0.00612   1.39509
   A30        2.08102  -0.00440  -0.02673   0.00000  -0.02483   2.05619
   A31        2.11332   0.00772   0.03788   0.00000   0.03548   2.14880
   A32        2.08872  -0.00346  -0.01140   0.00000  -0.01162   2.07711
   A33        1.72945   0.00561  -0.01395   0.00000  -0.02015   1.70930
   A34        1.55232   0.00091   0.01195   0.00000   0.00979   1.56211
   A35        3.20200  -0.00661   0.11120   0.00000   0.11158   3.31358
   A36        3.21303  -0.00691   0.13327   0.00000   0.13019   3.34322
   A37        3.06184  -0.03819  -0.19183   0.00000  -0.18805   2.87378
   A38        3.22193   0.03463   0.19301   0.00000   0.18905   3.41099
    D1       -1.24151   0.01294   0.07001   0.00000   0.07707  -1.16444
    D2        1.83824   0.00429  -0.05367   0.00000  -0.04545   1.79279
    D3       -3.00783   0.00470   0.26753   0.00000   0.25340  -2.75443
    D4        0.07192  -0.00394   0.14385   0.00000   0.13088   0.20280
    D5        1.03260  -0.02094  -0.07815   0.00000  -0.07695   0.95565
    D6        3.09429  -0.02455  -0.09423   0.00000  -0.09064   3.00365
    D7       -1.05607  -0.02974  -0.11604   0.00000  -0.11265  -1.16872
    D8       -2.02924   0.01725   0.11368   0.00000   0.11111  -1.91813
    D9        0.03245   0.01365   0.09761   0.00000   0.09742   0.12987
   D10        2.16528   0.00845   0.07580   0.00000   0.07541   2.24068
   D11        2.40065   0.02952   0.17257   0.00000   0.16484   2.56549
   D12       -1.82084   0.02592   0.15650   0.00000   0.15115  -1.66969
   D13        0.31198   0.02072   0.13469   0.00000   0.12914   0.44112
   D14       -0.00815  -0.00451  -0.01630   0.00000  -0.01653  -0.02468
   D15        3.07815  -0.00839  -0.12689   0.00000  -0.12495   2.95320
   D16        1.40822  -0.01097  -0.12016   0.00000  -0.11930   1.28892
   D17       -3.08816   0.00354   0.10687   0.00000   0.10412  -2.98404
   D18       -0.00186  -0.00034  -0.00371   0.00000  -0.00430  -0.00615
   D19       -1.67179  -0.00292   0.00301   0.00000   0.00135  -1.67044
   D20        1.24563  -0.00682  -0.06178   0.00000  -0.06610   1.17953
   D21        3.01299  -0.00088  -0.25720   0.00000  -0.24380   2.76919
   D22        1.23459  -0.01205  -0.08368   0.00000  -0.08693   1.14766
   D23       -1.84053  -0.00271   0.04910   0.00000   0.04344  -1.79708
   D24       -0.07316   0.00323  -0.14632   0.00000  -0.13425  -0.20741
   D25       -1.85156  -0.00794   0.02720   0.00000   0.02261  -1.82895
   D26       -0.44020  -0.00167  -0.00094   0.00000  -0.00272  -0.44292
   D27        1.32717   0.00427  -0.19636   0.00000  -0.18042   1.14675
   D28       -0.45124  -0.00690  -0.02283   0.00000  -0.02355  -0.47479
   D29       -1.03894  -0.00304  -0.00049   0.00000  -0.00102  -1.03997
   D30        1.04344   0.01525   0.02719   0.00000   0.02515   1.06859
   D31       -3.12881   0.00938   0.02557   0.00000   0.02525  -3.10356
   D32       -1.04645   0.01479   0.05045   0.00000   0.04982  -0.99664
   D33        1.02557   0.01448   0.05504   0.00000   0.05358   1.07916
   D34        2.01480  -0.01985  -0.14256   0.00000  -0.13924   1.87556
   D35       -2.19636  -0.02015  -0.13797   0.00000  -0.13547  -2.33183
   D36       -2.41444  -0.03535  -0.20014   0.00000  -0.19303  -2.60747
   D37       -0.34241  -0.03566  -0.19555   0.00000  -0.18926  -0.53168
   D38        0.00774   0.00332   0.01547   0.00000   0.01636   0.02410
   D39       -1.58009  -0.00009  -0.01858   0.00000  -0.01808  -1.59817
   D40        1.57856   0.00969   0.01553   0.00000   0.01546   1.59402
   D41        1.58813   0.00336   0.03467   0.00000   0.03387   1.62200
   D42        0.00031  -0.00004   0.00062   0.00000  -0.00057  -0.00026
   D43       -3.12423   0.00974   0.03473   0.00000   0.03297  -3.09126
   D44       -1.55716  -0.00021   0.02726   0.00000   0.02850  -1.52866
   D45        3.13820  -0.00362  -0.00679   0.00000  -0.00594   3.13226
   D46        0.01366   0.00616   0.02732   0.00000   0.02760   0.04126
   D47       -1.85462  -0.00081   0.03695   0.00000   0.03440  -1.82021
   D48       -0.02751  -0.01115  -0.07098   0.00000  -0.06403  -0.09154
   D49        1.29065   0.00272   0.04430   0.00000   0.03956   1.33021
   D50       -0.54062  -0.00867  -0.00383   0.00000  -0.00037  -0.54098
   D51        1.33384   0.00577   0.01487   0.00000   0.01497   1.34881
   D52       -1.81143   0.00224   0.00751   0.00000   0.00978  -1.80165
         Item               Value     Threshold  Converged?
 Maximum Force            0.051001     0.000015     NO 
 RMS     Force            0.015987     0.000010     NO 
 Maximum Displacement     0.464470     0.000060     NO 
 RMS     Displacement     0.092649     0.000040     NO 
 Predicted change in Energy=-8.034412D-02
 GradGradGradGradGradGradGradGradGradGradGradGradGradGradGradGradGradGrad

                          Input orientation:                          
 ---------------------------------------------------------------------
 Center     Atomic      Atomic             Coordinates (Angstroms)
 Number     Number       Type             X           Y           Z
 ---------------------------------------------------------------------
      1          6           0       -0.705951    1.088068    0.023380
      2          6           0        0.028177   -0.041722   -0.170378
      3          6           0        1.462035   -0.025843   -0.157584
      4          6           0        2.184642    1.105961    0.018214
      5          6           0        1.397135    1.160123    2.098384
      6          6           0        0.036068    1.176031    2.119066
      7          1           0       -1.091460    2.060275   -0.086255
      8          1           0       -1.627810    0.487196    0.351009
      9          1           0       -0.470732   -1.004415   -0.167189
     10          1           0        1.978983   -0.981155   -0.139384
     11          1           0        2.574330    2.073160   -0.137100
     12          1           0        3.111141    0.517840    0.358758
     13          1           0        1.958240    2.082051    2.095013
     14          1           0        1.946459    0.222483    2.093320
     15          1           0       -0.458491    2.141022    2.132155
     16          1           0       -0.562768    0.280926    2.168592
 ---------------------------------------------------------------------
                    Distance matrix (angstroms):
                    1          2          3          4          5
     1  C    0.000000
     2  C    1.361217   0.000000
     3  C    2.444117   1.434003   0.000000
     4  C    2.890652   2.450119   1.354269   0.000000
     5  C    2.955301   2.909598   2.549533   2.224907   0.000000
     6  C    2.224910   2.593171   2.942961   3.005804   1.361317
     7  H    1.051582   2.383077   3.298077   3.413864   3.431622
     8  H    1.148135   1.814909   3.173172   3.876650   3.557590
     9  H    2.114268   1.084295   2.166399   3.396920   3.647873
    10  H    3.393678   2.165442   1.086365   2.103137   3.151385
    11  H    3.428761   3.310095   2.375591   1.054255   2.686413
    12  H    3.873994   3.177698   1.811560   1.149025   2.525202
    13  H    3.518178   3.656166   3.124680   2.305885   1.079259
    14  H    3.474071   2.978916   2.315794   2.267892   1.086716
    15  H    2.369995   3.209809   3.691426   3.539244   2.099202
    16  H    2.296500   2.433947   3.099198   3.585117   2.149217
                    6          7          8          9         10
     6  C    0.000000
     7  H    2.629952   0.000000
     8  H    2.523689   1.718561   0.000000
     9  H    3.199711   3.127967   1.957616   0.000000
    10  H    3.678174   4.322122   3.924984   2.449983   0.000000
    11  H    3.512535   3.666165   4.517911   4.329523   3.111798
    12  H    3.603883   4.498777   4.739057   3.927301   1.943428
    13  H    2.125135   3.749543   4.294749   4.532519   3.791595
    14  H    2.135301   4.166171   3.985113   3.529588   2.536685
    15  H    1.084420   2.308357   2.697208   3.896268   4.566087
    16  H    1.078086   2.920605   2.116712   2.667667   3.657882
                   11         12         13         14         15
    11  H    0.000000
    12  H    1.718447   0.000000
    13  H    2.315593   2.605862   0.000000
    14  H    2.965468   2.110077   1.859606   0.000000
    15  H    3.788419   4.303711   2.417735   3.076699   0.000000
    16  H    4.285989   4.102345   3.099185   2.511035   1.863373
                   16
    16  H    0.000000
 Symmetry turned off by external request.
 Stoichiometry    C6H10
 Framework group  C1[X(C6H10)]
 Deg. of freedom    42
 Full point group                 C1      NOp   1
 Rotational constants (GHZ):           4.1207858           4.0352152           2.5146546
 Standard basis: VSTO-6G (5D, 7F)
    34 basis functions,   204 primitive gaussians,    34 cartesian basis functions
    17 alpha electrons       17 beta electrons
       nuclear repulsion energy       144.2143274917 Hartrees.
 Integral buffers will be    131072 words long.
 Regular integral format.
 Two-electron integral symmetry is turned off.
 Do NDO integrals.
 One-electron integrals computed using PRISM.
 NBasis=    34 RedAO= F EigKep=  0.00D+00  NBF=    34
 NBsUse=    34 1.00D-04 EigRej=  0.00D+00 NBFU=    34
 Initial guess from the checkpoint file:  "C:\Users\al6323\OneDrive - Imperial College London\Desktop\TSR20251111\TS_guess_IRC.chk"
 B after Tr=     0.003537   -0.020370   -0.047384
         Rot=    0.999996   -0.002603    0.000785   -0.000860 Ang=  -0.33 deg.
 Keep J ints in memory in canonical form, NReq=862358.
 Overlap will be assumed to be unity.
 Requested convergence on RMS density matrix=1.00D-08 within 128 cycles.
 Requested convergence on MAX density matrix=1.00D-06.
 Requested convergence on             energy=1.00D-06.
 No special actions if energy rises.
 SCF Done:  E(RPM6) =  0.207858068039     A.U. after   15 cycles
            NFock= 14  Conv=0.95D-08     -V/T= 1.0041
 Calling FoFJK, ICntrl=      2127 FMM=F ISym2X=0 I1Cent= 0 IOpClX= 0 NMat=1 NMatS=1 NMatT=0.
 -------------------------------------------------------------------
 Center     Atomic                   Forces (Hartrees/Bohr)
 Number     Number              X              Y              Z
 -------------------------------------------------------------------
      1        6          -0.057080189   -0.063096506    0.003020661
      2        6           0.030728967    0.025229904   -0.024814272
      3        6          -0.034467429    0.016097623   -0.030547649
      4        6           0.062015238   -0.054034156    0.001110465
      5        6          -0.018642364    0.001023652    0.011093142
      6        6           0.021109137    0.012055745    0.009841337
      7        1           0.029466637    0.009166322   -0.005280492
      8        1          -0.020291185    0.025612302   -0.001821888
      9        1           0.001251508   -0.003814701    0.001223273
     10        1          -0.001987431   -0.004446897    0.001829254
     11        1          -0.030107277    0.008361968   -0.003895274
     12        1           0.020179908    0.026166788   -0.001477915
     13        1           0.002979672   -0.000824046    0.006568734
     14        1           0.001294063    0.003887565    0.015868353
     15        1          -0.005521380   -0.003176619    0.005595184
     16        1          -0.000927876    0.001791056    0.011687085
 -------------------------------------------------------------------
 Cartesian Forces:  Max     0.063096506 RMS     0.022577163

 GradGradGradGradGradGradGradGradGradGradGradGradGradGradGradGradGradGrad
 Berny optimization.
 Using GEDIIS/GDIIS optimizer.
 FormGI is forming the generalized inverse of G from B-inverse, IUseBI=4.
 Internal  Forces:  Max     0.028755079 RMS     0.009070626
 Search for a local minimum.
 Step number   3 out of a maximum of  100
 All quantities printed in internal units (Hartrees-Bohrs-Radians)
 Mixed Optimization -- RFO/linear search
 Update second derivatives using D2CorX and points    2    3
 ITU=  0  1  0
 Use linear search instead of GDIIS.
 Linear search step of   0.682 exceeds DXMaxT=   0.505 but not scaled.
 Quartic linear search produced a step of  1.06825.
 Iteration  1 RMS(Cart)=  0.09429239 RMS(Int)=  0.01654286
 Iteration  2 RMS(Cart)=  0.01559683 RMS(Int)=  0.00679960
 Iteration  3 RMS(Cart)=  0.00043371 RMS(Int)=  0.00678580
 Iteration  4 RMS(Cart)=  0.00000250 RMS(Int)=  0.00678580
 Iteration  5 RMS(Cart)=  0.00000002 RMS(Int)=  0.00678580
 Iteration  1 RMS(Cart)=  0.00009969 RMS(Int)=  0.00012167
 Iteration  2 RMS(Cart)=  0.00005486 RMS(Int)=  0.00013592
 Iteration  3 RMS(Cart)=  0.00003001 RMS(Int)=  0.00015353
 Iteration  4 RMS(Cart)=  0.00001639 RMS(Int)=  0.00016515
 Iteration  5 RMS(Cart)=  0.00000894 RMS(Int)=  0.00017196
 Iteration  6 RMS(Cart)=  0.00000488 RMS(Int)=  0.00017580
 Iteration  7 RMS(Cart)=  0.00000266 RMS(Int)=  0.00017793
 Iteration  8 RMS(Cart)=  0.00000145 RMS(Int)=  0.00017910
 Iteration  9 RMS(Cart)=  0.00000079 RMS(Int)=  0.00017974
 Variable       Old X    -DE/DX   Delta X   Delta X   Delta X     New X
                                 (Linear)    (Quad)   (Total)
    R1        2.57233   0.00378   0.02966   0.00000   0.03177   2.60410
    R2        4.20447   0.02876   0.00000   0.00000   0.00000   4.20447
    R3        1.98720  -0.00178  -0.05223   0.00000  -0.05223   1.93498
    R4        2.16966   0.00237   0.07953   0.00000   0.07953   2.24920
    R5        2.70987   0.00155  -0.04736   0.00000  -0.04446   2.66541
    R6        2.04902   0.00281  -0.00771   0.00000  -0.00771   2.04131
    R7        2.55920   0.00604   0.02100   0.00000   0.02613   2.58533
    R8        2.05293   0.00300  -0.00493   0.00000  -0.00493   2.04800
    R9        4.37622   0.02112   0.20316   0.00000   0.20112   4.57734
   R10        4.20446   0.01623   0.00000   0.00000   0.00000   4.20446
   R11        1.99225  -0.00388  -0.04817   0.00000  -0.04616   1.94609
   R12        2.17134   0.00244   0.08073   0.00000   0.08073   2.25208
   R13        4.35749   0.00552  -0.00662   0.00000  -0.00912   4.34837
   R14        2.57252  -0.00020   0.02760   0.00000   0.02464   2.59716
   R15        2.03950  -0.00039  -0.01460   0.00000  -0.01503   2.02448
   R16        2.05360   0.00013  -0.00376   0.00000  -0.00413   2.04947
   R17        2.04926  -0.00024  -0.00755   0.00000  -0.00755   2.04171
   R18        2.03729  -0.00043  -0.01607   0.00000  -0.01607   2.02122
   R19        4.37584  -0.00096   0.11588   0.00000   0.11886   4.49469
    A1        1.55782   0.00296   0.10908   0.00000   0.10587   1.66369
    A2        1.61008   0.02714   0.23277   0.00000   0.25942   1.86950
    A3        1.75576  -0.00650   0.01012   0.00000   0.01125   1.76701
    A4        1.59048   0.00977  -0.16094   0.00000  -0.18713   1.40335
    A5        1.79184  -0.00244  -0.02378   0.00000  -0.01670   1.77514
    A6        2.12798   0.00714   0.02142   0.00000   0.01384   2.14183
    A7        2.08097  -0.00124  -0.01010   0.00000  -0.01334   2.06763
    A8        2.05995  -0.00673  -0.02482   0.00000  -0.02687   2.03309
    A9        2.14592   0.00930   0.03428   0.00000   0.02538   2.17130
   A10        2.05580  -0.00618  -0.02762   0.00000  -0.02795   2.02786
   A11        1.79161   0.00105  -0.00174   0.00000  -0.00102   1.79059
   A12        2.07012  -0.00341  -0.01737   0.00000  -0.01818   2.05195
   A13        1.23724  -0.00403  -0.09473   0.00000  -0.08833   1.14891
   A14        1.54927   0.00190   0.00227   0.00000   0.00107   1.55034
   A15        1.52363   0.00028   0.08455   0.00000   0.08202   1.60565
   A16        1.61176   0.02782   0.23245   0.00000   0.25403   1.86579
   A17        2.00236  -0.00108   0.08059   0.00000   0.07739   2.07975
   A18        1.81959  -0.00548   0.05452   0.00000   0.05069   1.87028
   A19        1.59156   0.00716  -0.15878   0.00000  -0.17871   1.41285
   A20        1.78768  -0.00375  -0.02380   0.00000  -0.00570   1.78198
   A21        1.59970  -0.00335  -0.24064   0.00000  -0.25719   1.34251
   A22        1.94806   0.00784   0.02765   0.00000   0.02214   1.97019
   A23        1.36507  -0.00269  -0.02781   0.00000  -0.02455   1.34052
   A24        2.10583   0.00325   0.00918   0.00000   0.01365   2.11948
   A25        2.11245   0.00164   0.01261   0.00000   0.01132   2.12376
   A26        2.06488  -0.00491  -0.02182   0.00000  -0.02500   2.03987
   A27        1.89512  -0.00092  -0.00932   0.00000  -0.01027   1.88485
   A28        1.46505   0.00365   0.04315   0.00000   0.04308   1.50814
   A29        1.39509   0.00260  -0.00654   0.00000  -0.00459   1.39050
   A30        2.05619  -0.00197  -0.02652   0.00000  -0.02414   2.03205
   A31        2.14880   0.00402   0.03791   0.00000   0.03501   2.18382
   A32        2.07711  -0.00235  -0.01241   0.00000  -0.01287   2.06424
   A33        1.70930   0.00288  -0.02153   0.00000  -0.02882   1.68048
   A34        1.56211  -0.00097   0.01046   0.00000   0.00691   1.56902
   A35        3.31358  -0.00354   0.11920   0.00000   0.11713   3.43071
   A36        3.34322  -0.00519   0.13907   0.00000   0.13271   3.47593
   A37        2.87378  -0.02611  -0.20089   0.00000  -0.19731   2.67647
   A38        3.41099   0.02511   0.20196   0.00000   0.19766   3.60864
    D1       -1.16444   0.00977   0.08233   0.00000   0.08984  -1.07460
    D2        1.79279   0.00380  -0.04855   0.00000  -0.03906   1.75373
    D3       -2.75443   0.00022   0.27069   0.00000   0.25602  -2.49841
    D4        0.20280  -0.00576   0.13981   0.00000   0.12711   0.32991
    D5        0.95565  -0.01194  -0.08220   0.00000  -0.08140   0.87425
    D6        3.00365  -0.01289  -0.09682   0.00000  -0.09351   2.91014
    D7       -1.16872  -0.01693  -0.12034   0.00000  -0.11702  -1.28574
    D8       -1.91813   0.01417   0.11869   0.00000   0.11591  -1.80222
    D9        0.12987   0.01322   0.10406   0.00000   0.10380   0.23367
   D10        2.24068   0.00918   0.08055   0.00000   0.08029   2.32098
   D11        2.56549   0.01515   0.17609   0.00000   0.16752   2.73301
   D12       -1.66969   0.01419   0.16146   0.00000   0.15541  -1.51429
   D13        0.44112   0.01016   0.13795   0.00000   0.13191   0.57302
   D14       -0.02468  -0.00333  -0.01766   0.00000  -0.01741  -0.04209
   D15        2.95320  -0.00585  -0.13347   0.00000  -0.13058   2.82262
   D16        1.28892  -0.00693  -0.12744   0.00000  -0.12371   1.16521
   D17       -2.98404   0.00204   0.11123   0.00000   0.10786  -2.87618
   D18       -0.00615  -0.00048  -0.00459   0.00000  -0.00531  -0.01147
   D19       -1.67044  -0.00156   0.00144   0.00000   0.00156  -1.66888
   D20        1.17953  -0.00468  -0.07061   0.00000  -0.07455   1.10498
   D21        2.76919   0.00122  -0.26044   0.00000  -0.24793   2.52127
   D22        1.14766  -0.00790  -0.09287   0.00000  -0.09570   1.05195
   D23       -1.79708  -0.00191   0.04641   0.00000   0.04084  -1.75624
   D24       -0.20741   0.00398  -0.14342   0.00000  -0.13254  -0.33995
   D25       -1.82895  -0.00513   0.02415   0.00000   0.01969  -1.80926
   D26       -0.44292  -0.00051  -0.00291   0.00000  -0.00515  -0.44807
   D27        1.14675   0.00538  -0.19273   0.00000  -0.17853   0.96822
   D28       -0.47479  -0.00374  -0.02516   0.00000  -0.02631  -0.50110
   D29       -1.03997  -0.00044  -0.00109   0.00000  -0.00111  -1.04108
   D30        1.06859   0.00891   0.02686   0.00000   0.02488   1.09347
   D31       -3.10356   0.00536   0.02697   0.00000   0.02748  -3.07608
   D32       -0.99664   0.00863   0.05321   0.00000   0.05300  -0.94364
   D33        1.07916   0.00933   0.05724   0.00000   0.05618   1.13534
   D34        1.87556  -0.01648  -0.14874   0.00000  -0.14466   1.73090
   D35       -2.33183  -0.01578  -0.14472   0.00000  -0.14148  -2.47331
   D36       -2.60747  -0.01890  -0.20621   0.00000  -0.20017  -2.80764
   D37       -0.53168  -0.01820  -0.20218   0.00000  -0.19699  -0.72866
   D38        0.02410   0.00264   0.01748   0.00000   0.01777   0.04187
   D39       -1.59817  -0.00047  -0.01931   0.00000  -0.01878  -1.61695
   D40        1.59402   0.00662   0.01652   0.00000   0.01660   1.61062
   D41        1.62200   0.00315   0.03618   0.00000   0.03439   1.65639
   D42       -0.00026   0.00003  -0.00061   0.00000  -0.00217  -0.00243
   D43       -3.09126   0.00713   0.03522   0.00000   0.03322  -3.05804
   D44       -1.52866   0.00066   0.03045   0.00000   0.03036  -1.49830
   D45        3.13226  -0.00246  -0.00635   0.00000  -0.00619   3.12606
   D46        0.04126   0.00464   0.02948   0.00000   0.02919   0.07045
   D47       -1.82021   0.00149   0.03675   0.00000   0.03292  -1.78730
   D48       -0.09154  -0.00814  -0.06840   0.00000  -0.05798  -0.14952
   D49        1.33021   0.00388   0.04226   0.00000   0.03658   1.36680
   D50       -0.54098  -0.00154  -0.00039   0.00000   0.00372  -0.53727
   D51        1.34881   0.00606   0.01600   0.00000   0.01538   1.36419
   D52       -1.80165   0.00367   0.01045   0.00000   0.01171  -1.78994
         Item               Value     Threshold  Converged?
 Maximum Force            0.027704     0.000015     NO 
 RMS     Force            0.008394     0.000010     NO 
 Maximum Displacement     0.503732     0.000060     NO 
 RMS     Displacement     0.099826     0.000040     NO 
 Predicted change in Energy=-3.128582D-02
 GradGradGradGradGradGradGradGradGradGradGradGradGradGradGradGradGradGrad

                          Input orientation:                          
 ---------------------------------------------------------------------
 Center     Atomic      Atomic             Coordinates (Angstroms)
 Number     Number       Type             X           Y           Z
 ---------------------------------------------------------------------
      1          6           0       -0.722384    1.027432    0.036502
      2          6           0        0.046666   -0.068318   -0.290392
      3          6           0        1.456753   -0.044120   -0.267880
      4          6           0        2.206314    1.061303    0.028579
      5          6           0        1.391280    1.155269    2.096693
      6          6           0        0.017566    1.182056    2.129058
      7          1           0       -0.988817    1.997728   -0.153239
      8          1           0       -1.680091    0.622890    0.615962
      9          1           0       -0.418556   -1.043214   -0.287513
     10          1           0        1.951232   -1.008045   -0.238466
     11          1           0        2.481602    2.018482   -0.233285
     12          1           0        3.164875    0.680096    0.625322
     13          1           0        1.967714    2.058242    2.088687
     14          1           0        1.942796    0.221462    2.090168
     15          1           0       -0.444033    2.158724    2.148182
     16          1           0       -0.612919    0.322012    2.211622
 ---------------------------------------------------------------------
                    Distance matrix (angstroms):
                    1          2          3          4          5
     1  C    0.000000
     2  C    1.378029   0.000000
     3  C    2.447348   1.410475   0.000000
     4  C    2.928905   2.458021   1.368098   0.000000
     5  C    2.954371   3.000555   2.652174   2.224906   0.000000
     6  C    2.224911   2.723604   3.052881   3.035986   1.374356
     7  H    1.023945   2.315078   3.187962   3.334489   3.381833
     8  H    1.190223   2.069042   3.326540   3.954917   3.450987
     9  H    2.117751   1.080213   2.124937   3.379179   3.713929
    10  H    3.371498   2.124420   1.083756   2.102043   3.232096
    11  H    3.364594   3.207322   2.303441   1.029829   2.713437
    12  H    3.946915   3.334950   2.059121   1.191747   2.352948
    13  H    3.537041   3.724607   3.199127   2.301056   1.071308
    14  H    3.459815   3.057180   2.422223   2.241634   1.084531
    15  H    2.411741   3.338734   3.781913   3.566706   2.092355
    16  H    2.289268   2.616769   3.250466   3.641470   2.173555
                    6          7          8          9         10
     6  C    0.000000
     7  H    2.624311   0.000000
     8  H    2.341829   1.720381   0.000000
     9  H    3.313886   3.096862   2.276761   0.000000
    10  H    3.760423   4.205453   4.071425   2.370556   0.000000
    11  H    3.514505   3.471405   4.470860   4.217563   3.072652
    12  H    3.524024   4.426678   4.845313   4.079711   2.251418
    13  H    2.138319   3.710926   4.187557   4.578169   3.849419
    14  H    2.151921   4.096627   3.931887   3.581725   2.633305
    15  H    1.080426   2.370495   2.496862   4.023141   4.632689
    16  H    1.069581   2.922651   1.943068   2.854346   3.787724
                   11         12         13         14         15
    11  H    0.000000
    12  H    1.730706   0.000000
    13  H    2.378490   2.339640   0.000000
    14  H    2.986306   1.962039   1.836949   0.000000
    15  H    3.774969   4.186844   2.414573   3.074623   0.000000
[...]
   D45        2.88223   0.00126  -0.00001   0.00000  -0.00001   2.88223
   D46        0.00001   0.00061  -0.00001   0.00000  -0.00001   0.00000
   D47       -1.53130  -0.00075  -0.00001   0.00000  -0.00002  -1.53131
   D48       -0.40150   0.00030   0.00001   0.00000   0.00001  -0.40149
   D49        1.85076  -0.00290  -0.00001  -0.00001  -0.00002   1.85074
   D50       -0.48877   0.00061   0.00000   0.00000   0.00000  -0.48878
   D51        1.44161   0.00176   0.00000   0.00000  -0.00001   1.44160
   D52       -1.93980   0.00414  -0.00001   0.00000  -0.00001  -1.93980
         Item               Value     Threshold  Converged?
 Maximum Force            0.000000     0.000015     YES
 RMS     Force            0.000000     0.000010     YES
 Maximum Displacement     0.000041     0.000060     YES
 RMS     Displacement     0.000012     0.000040     YES
 Predicted change in Energy=-5.698616D-09
 Optimization completed.
    -- Stationary point found.
                           ----------------------------
                           !   Optimized Parameters   !
                           ! (Angstroms and Degrees)  !
 --------------------------                            --------------------------
 ! Name  Definition              Value          Derivative Info.                !
 --------------------------------------------------------------------------------
 ! R1    R(1,2)                  1.3542         -DE/DX =   -0.0001              !
 ! R2    R(1,6)                  2.2249         -DE/DX =    0.0198              !
 ! R3    R(1,7)                  1.0847         -DE/DX =    0.0                 !
 ! R4    R(1,8)                  1.0818         -DE/DX =    0.0                 !
 ! R5    R(2,3)                  1.4437         -DE/DX =    0.0011              !
 ! R6    R(2,9)                  1.0903         -DE/DX =    0.0                 !
 ! R7    R(3,4)                  1.3542         -DE/DX =    0.0003              !
 ! R8    R(3,10)                 1.0903         -DE/DX =    0.0                 !
 ! R9    R(3,14)                 2.7264         -DE/DX =    0.005               !
 ! R10   R(4,5)                  2.2249         -DE/DX =    0.0111              !
 ! R11   R(4,11)                 1.0847         -DE/DX =    0.0003              !
 ! R12   R(4,12)                 1.0818         -DE/DX =    0.0                 !
 ! R13   R(4,13)                 2.3987         -DE/DX =    0.0044              !
 ! R14   R(5,6)                  1.3532         -DE/DX =   -0.0011              !
 ! R15   R(5,13)                 1.0823         -DE/DX =   -0.0008              !
 ! R16   R(5,14)                 1.0829         -DE/DX =   -0.0005              !
 ! R17   R(6,15)                 1.0823         -DE/DX =    0.0                 !
 ! R18   R(6,16)                 1.0829         -DE/DX =    0.0                 !
 ! R19   R(11,13)                2.1913         -DE/DX =    0.0018              !
 ! A1    A(2,1,6)               98.1995         -DE/DX =   -0.0011              !
 ! A2    A(2,1,8)              122.0314         -DE/DX =    0.0005              !
 ! A3    A(6,1,7)               81.099          -DE/DX =    0.0005              !
 ! A4    A(6,1,8)              102.6634         -DE/DX =    0.0004              !
 ! A5    A(7,1,8)              113.2605         -DE/DX =    0.0                 !
 ! A6    A(1,2,3)              121.6023         -DE/DX =    0.0006              !
 ! A7    A(1,2,9)              120.99           -DE/DX =   -0.0002              !
 ! A8    A(3,2,9)              116.7305         -DE/DX =   -0.0003              !
 ! A9    A(2,3,4)              121.6021         -DE/DX =    0.0015              !
 ! A10   A(2,3,10)             116.7306         -DE/DX =   -0.0005              !
 ! A11   A(2,3,14)             101.1996         -DE/DX =    0.0004              !
 ! A12   A(4,3,10)             120.9901         -DE/DX =   -0.0008              !
 ! A13   A(4,3,14)              61.4826         -DE/DX =    0.0012              !
 ! A14   A(10,3,14)            100.0354         -DE/DX =   -0.0005              !
 ! A15   A(3,4,5)               98.199          -DE/DX =   -0.0009              !
 ! A16   A(3,4,12)             122.0315         -DE/DX =    0.0004              !
 ! A17   A(3,4,13)             124.8125         -DE/DX =   -0.0017              !
 ! A18   A(5,4,11)              81.0993         -DE/DX =   -0.0017              !
 ! A19   A(5,4,12)             102.6635         -DE/DX =   -0.0002              !
 ! A20   A(11,4,12)            113.2605         -DE/DX =    0.0004              !
 ! A21   A(12,4,13)             88.4693         -DE/DX =    0.0001              !
 ! A22   A(4,5,6)              109.8328         -DE/DX =    0.0017              !
 ! A23   A(4,5,14)              85.4627         -DE/DX =   -0.0013              !
 ! A24   A(6,5,13)             122.3026         -DE/DX =    0.0012              !
 ! A25   A(6,5,14)             122.0608         -DE/DX =   -0.0003              !
 ! A26   A(13,5,14)            114.1233         -DE/DX =   -0.0003              !
 ! A27   A(1,6,5)              109.8332         -DE/DX =   -0.0026              !
 ! A28   A(1,6,15)              85.6206         -DE/DX =    0.0011              !
 ! A29   A(1,6,16)              85.4614         -DE/DX =    0.0011              !
 ! A30   A(5,6,15)             122.3022         -DE/DX =    0.0004              !
 ! A31   A(5,6,16)             122.0611         -DE/DX =   -0.0003              !
 ! A32   A(15,6,16)            114.1234         -DE/DX =    0.0                 !
 ! A33   A(5,13,11)             82.8166         -DE/DX =    0.0028              !
 ! A34   A(3,14,5)              80.6204         -DE/DX =    0.0017              !
 ! A35   L(2,1,7,6,-1)         179.2985         -DE/DX =   -0.0005              !
 ! A36   L(3,4,11,5,-1)        179.2983         -DE/DX =   -0.0026              !
 ! A37   L(2,1,7,6,-2)         122.4434         -DE/DX =   -0.0003              !
 ! A38   L(3,4,11,5,-2)        237.5566         -DE/DX =    0.0                 !
 ! D1    D(6,1,2,3)            -60.5858         -DE/DX =   -0.0003              !
 ! D2    D(6,1,2,9)            109.6747         -DE/DX =    0.0002              !
 ! D3    D(8,1,2,3)           -171.1595         -DE/DX =   -0.0002              !
 ! D4    D(8,1,2,9)             -0.899          -DE/DX =    0.0003              !
 ! D5    D(2,1,6,5)             52.0621         -DE/DX =   -0.0006              !
 ! D6    D(2,1,6,15)           174.8904         -DE/DX =   -0.0002              !
 ! D7    D(2,1,6,16)           -70.4474         -DE/DX =   -0.0004              !
 ! D8    D(7,1,6,5)            -70.3813         -DE/DX =   -0.0003              !
 ! D9    D(7,1,6,15)            52.447          -DE/DX =    0.0001              !
 ! D10   D(7,1,6,16)           167.1092         -DE/DX =   -0.0001              !
 ! D11   D(8,1,6,5)            177.6252         -DE/DX =   -0.0004              !
 ! D12   D(8,1,6,15)           -59.5466         -DE/DX =    0.0001              !
 ! D13   D(8,1,6,16)            55.1157         -DE/DX =   -0.0002              !
 ! D14   D(1,2,3,4)              0.0003         -DE/DX =   -0.0002              !
 ! D15   D(1,2,3,10)           170.6556         -DE/DX =    0.0008              !
 ! D16   D(1,2,3,14)            63.2814         -DE/DX =    0.0013              !
 ! D17   D(9,2,3,4)           -170.655          -DE/DX =   -0.0006              !
 ! D18   D(9,2,3,10)             0.0003         -DE/DX =    0.0003              !
 ! D19   D(9,2,3,14)          -107.3739         -DE/DX =    0.0008              !
 ! D20   D(2,3,4,5)             60.586          -DE/DX =    0.0014              !
 ! D21   D(2,3,4,12)           171.1595         -DE/DX =    0.0005              !
 ! D22   D(2,3,4,13)            57.7906         -DE/DX =    0.0016              !
 ! D23   D(10,3,4,5)          -109.6744         -DE/DX =    0.0003              !
 ! D24   D(10,3,4,12)            0.8991         -DE/DX =   -0.0005              !
 ! D25   D(10,3,4,13)         -112.4699         -DE/DX =    0.0006              !
 ! D26   D(14,3,4,5)           -25.1262         -DE/DX =    0.001               !
 ! D27   D(14,3,4,12)           85.4473         -DE/DX =    0.0001              !
 ! D28   D(14,3,4,13)          -27.9216         -DE/DX =    0.0012              !
 ! D29   D(2,3,14,5)           -58.9538         -DE/DX =   -0.0003              !
 ! D30   D(4,3,14,5)            61.0707         -DE/DX =    0.0012              !
 ! D31   D(10,3,14,5)         -178.9996         -DE/DX =    0.0004              !
 ! D32   D(3,4,5,6)            -52.0656         -DE/DX =    0.0002              !
 ! D33   D(3,4,5,14)            70.444          -DE/DX =   -0.0004              !
 ! D34   D(11,4,5,6)            70.3778         -DE/DX =    0.0002              !
 ! D35   D(11,4,5,14)         -167.1125         -DE/DX =   -0.0004              !
 ! D36   D(12,4,5,6)          -177.6286         -DE/DX =    0.0003              !
 ! D37   D(12,4,5,14)          -55.1189         -DE/DX =   -0.0003              !
 ! D38   D(4,5,6,1)              0.002          -DE/DX =    0.0004              !
 ! D39   D(4,5,6,15)           -97.5827         -DE/DX =    0.0007              !
 ! D40   D(4,5,6,16)            97.2782         -DE/DX =    0.0                 !
 ! D41   D(13,5,6,1)            97.5852         -DE/DX =   -0.0013              !
 ! D42   D(13,5,6,15)            0.0006         -DE/DX =   -0.0011              !
 ! D43   D(13,5,6,16)         -165.1386         -DE/DX =   -0.0017              !
 ! D44   D(14,5,6,1)           -97.2754         -DE/DX =    0.001               !
 ! D45   D(14,5,6,15)          165.1399         -DE/DX =    0.0013              !
 ! D46   D(14,5,6,16)            0.0008         -DE/DX =    0.0006              !
 ! D47   D(6,5,13,11)          -87.7368         -DE/DX =   -0.0007              !
 ! D48   D(11,5,13,4)          -23.0041         -DE/DX =    0.0003              !
 ! D49   D(14,5,13,11)         106.0407         -DE/DX =   -0.0029              !
 ! D50   D(4,5,14,3)           -28.0046         -DE/DX =    0.0006              !
 ! D51   D(6,5,14,3)            82.5981         -DE/DX =    0.0018              !
 ! D52   D(13,5,14,3)         -111.1421         -DE/DX =    0.0041              !
 --------------------------------------------------------------------------------
 GradGradGradGradGradGradGradGradGradGradGradGradGradGradGradGradGradGrad

                          Input orientation:                          
 ---------------------------------------------------------------------
 Center     Atomic      Atomic             Coordinates (Angstroms)
 Number     Number       Type             X           Y           Z
 ---------------------------------------------------------------------
      1          6           0       -0.692781    0.943405    0.061927
      2          6           0        0.017615   -0.164798   -0.256001
      3          6           0        1.461279   -0.165850   -0.248884
      4          6           0        2.170117    0.941319    0.076046
      5          6           0        1.405220    1.211088    2.147856
      6          6           0        0.052037    1.212107    2.141174
      7          1           0       -0.296149    1.948753   -0.030484
      8          1           0       -1.765968    0.918172    0.195848
      9          1           0       -0.472932   -1.131314   -0.374344
     10          1           0        1.951561   -1.133079   -0.362396
     11          1           0        1.775876    1.947242   -0.020255
     12          1           0        3.241893    0.914527    0.220542
     13          1           0        1.984275    2.125473    2.153801
     14          1           0        1.978204    0.322848    2.383060
     15          1           0       -0.525663    2.127368    2.141398
     16          1           0       -0.524583    0.324739    2.370713
 ---------------------------------------------------------------------
                    Distance matrix (angstroms):
                    1          2          3          4          5
     1  C    0.000000
     2  C    1.354199   0.000000
     3  C    2.442749   1.443682   0.000000
     4  C    2.862933   2.442747   1.354199   0.000000
     5  C    2.970583   3.097908   2.764681   2.224913   0.000000
     6  C    2.224910   2.764688   3.097919   2.970579   1.353200
     7  H    1.084703   2.148581   2.758223   2.666222   2.860764
     8  H    1.081805   2.134985   3.433368   3.937976   3.735314
     9  H    2.131461   1.090319   2.165417   3.388859   3.921198
    10  H    3.388862   2.165418   1.090319   2.131461   3.477783
    11  H    2.666216   2.758218   2.148581   1.084703   2.319486
    12  H    3.937976   3.433366   2.134985   1.081805   2.678779
    13  H    3.597200   3.862672   3.361038   2.398712   1.082330
    14  H    3.592619   3.323605   2.726384   2.396174   1.082867
    15  H    2.398728   3.361056   3.862672   3.597168   2.137270
    16  H    2.396149   2.726399   3.323644   3.592641   2.135280
                    6          7          8          9         10
     6  C    0.000000
     7  H    2.319478   0.000000
     8  H    2.678775   1.809334   0.000000
     9  H    3.477793   3.104240   2.489469   0.000000
    10  H    3.921218   3.828845   4.282440   2.424523   0.000000
    11  H    2.860738   2.072051   3.694637   3.828840   3.104240
    12  H    3.735313   3.694643   5.007924   4.282438   2.489471
    13  H    2.137274   3.162698   4.399486   4.799587   4.117096
    14  H    2.135277   3.693432   4.376886   3.965593   3.107727
    15  H    1.082331   2.191267   2.604932   4.117128   4.799598
    16  H    1.082867   2.907808   2.573565   3.107747   3.965653
                   11         12         13         14         15
    11  H    0.000000
    12  H    1.809335   0.000000
    13  H    2.191282   2.604896   0.000000
    14  H    2.907837   2.573612   1.817155   0.000000
    15  H    3.162637   4.399449   2.509970   3.095810   0.000000
    16  H    3.693420   4.376920   3.095813   2.502818   1.817156
                   16
    16  H    0.000000
 Symmetry turned off by external request.
 Stoichiometry    C6H10
 Framework group  C1[X(C6H10)]
 Deg. of freedom    42
 Full point group                 C1      NOp   1
 Rotational constants (GHZ):           4.3230367           3.7395391           2.3864378

 **********************************************************************

            Population analysis using the SCF Density.

 **********************************************************************

 Alpha  occ. eigenvalues --   -1.05813  -0.95878  -0.93411  -0.80527  -0.75249
 Alpha  occ. eigenvalues --   -0.66117  -0.62073  -0.58864  -0.53768  -0.51556
 Alpha  occ. eigenvalues --   -0.50844  -0.46069  -0.45411  -0.43917  -0.42910
 Alpha  occ. eigenvalues --   -0.33765  -0.33453
 Alpha virt. eigenvalues --    0.01633   0.03937   0.09134   0.17553   0.19500
 Alpha virt. eigenvalues --    0.20988   0.21581   0.21707   0.21992   0.22134
 Alpha virt. eigenvalues --    0.22895   0.23586   0.23749   0.23854   0.24656
 Alpha virt. eigenvalues --    0.24659   0.24896
          Condensed to atoms (all electrons):
               1          2          3          4          5          6
     1  C    4.285292   0.000000   0.000000   0.000000   0.000000   0.000000
     2  C    0.000000   4.139446   0.000000   0.000000   0.000000   0.000000
     3  C    0.000000   0.000000   4.139445   0.000000   0.000000   0.000000
     4  C    0.000000   0.000000   0.000000   4.285293   0.000000   0.000000
     5  C    0.000000   0.000000   0.000000   0.000000   4.288158   0.000000
     6  C    0.000000   0.000000   0.000000   0.000000   0.000000   4.288160
     7  H    0.000000   0.000000   0.000000   0.000000   0.000000   0.000000
     8  H    0.000000   0.000000   0.000000   0.000000   0.000000   0.000000
     9  H    0.000000   0.000000   0.000000   0.000000   0.000000   0.000000
    10  H    0.000000   0.000000   0.000000   0.000000   0.000000   0.000000
    11  H    0.000000   0.000000   0.000000   0.000000   0.000000   0.000000
    12  H    0.000000   0.000000   0.000000   0.000000   0.000000   0.000000
    13  H    0.000000   0.000000   0.000000   0.000000   0.000000   0.000000
    14  H    0.000000   0.000000   0.000000   0.000000   0.000000   0.000000
    15  H    0.000000   0.000000   0.000000   0.000000   0.000000   0.000000
    16  H    0.000000   0.000000   0.000000   0.000000   0.000000   0.000000
               7          8          9         10         11         12
     1  C    0.000000   0.000000   0.000000   0.000000   0.000000   0.000000
     2  C    0.000000   0.000000   0.000000   0.000000   0.000000   0.000000
     3  C    0.000000   0.000000   0.000000   0.000000   0.000000   0.000000
     4  C    0.000000   0.000000   0.000000   0.000000   0.000000   0.000000
     5  C    0.000000   0.000000   0.000000   0.000000   0.000000   0.000000
     6  C    0.000000   0.000000   0.000000   0.000000   0.000000   0.000000
     7  H    0.846752   0.000000   0.000000   0.000000   0.000000   0.000000
     8  H    0.000000   0.861343   0.000000   0.000000   0.000000   0.000000
     9  H    0.000000   0.000000   0.863054   0.000000   0.000000   0.000000
    10  H    0.000000   0.000000   0.000000   0.863054   0.000000   0.000000
    11  H    0.000000   0.000000   0.000000   0.000000   0.846752   0.000000
    12  H    0.000000   0.000000   0.000000   0.000000   0.000000   0.861343
    13  H    0.000000   0.000000   0.000000   0.000000   0.000000   0.000000
    14  H    0.000000   0.000000   0.000000   0.000000   0.000000   0.000000
    15  H    0.000000   0.000000   0.000000   0.000000   0.000000   0.000000
    16  H    0.000000   0.000000   0.000000   0.000000   0.000000   0.000000
              13         14         15         16
     1  C    0.000000   0.000000   0.000000   0.000000
     2  C    0.000000   0.000000   0.000000   0.000000
     3  C    0.000000   0.000000   0.000000   0.000000
     4  C    0.000000   0.000000   0.000000   0.000000
     5  C    0.000000   0.000000   0.000000   0.000000
     6  C    0.000000   0.000000   0.000000   0.000000
     7  H    0.000000   0.000000   0.000000   0.000000
     8  H    0.000000   0.000000   0.000000   0.000000
     9  H    0.000000   0.000000   0.000000   0.000000
    10  H    0.000000   0.000000   0.000000   0.000000
    11  H    0.000000   0.000000   0.000000   0.000000
    12  H    0.000000   0.000000   0.000000   0.000000
    13  H    0.861527   0.000000   0.000000   0.000000
    14  H    0.000000   0.854428   0.000000   0.000000
    15  H    0.000000   0.000000   0.861527   0.000000
    16  H    0.000000   0.000000   0.000000   0.854427
 Mulliken charges:
               1
     1  C   -0.285292
     2  C   -0.139446
     3  C   -0.139445
     4  C   -0.285293
     5  C   -0.288158
     6  C   -0.288160
     7  H    0.153248
     8  H    0.138657
     9  H    0.136946
    10  H    0.136946
    11  H    0.153248
    12  H    0.138657
    13  H    0.138473
    14  H    0.145572
    15  H    0.138473
    16  H    0.145573
 Sum of Mulliken charges =   0.00000
 Mulliken charges with hydrogens summed into heavy atoms:
               1
     1  C    0.006614
     2  C   -0.002500
     3  C   -0.002499
     4  C    0.006613
     5  C   -0.004113
     6  C   -0.004115
 Charge=              0.0000 electrons
 Dipole moment (field-independent basis, Debye):
    X=             -0.0007    Y=              0.2442    Z=              0.1837  Tot=              0.3056
 N-N= 1.434702557847D+02 E-N=-2.154179827380D+02  KE=-5.051660713336D+01
