 Default is to use a total of   8 processors:
                                8 via shared-memory
                                1 via Linda
 Entering Link 1 = C:\G16W\l1.exe PID=     20596.
  
 Copyright (c) 1988-2019, Gaussian, Inc.  All Rights Reserved.
  
 This is part of the Gaussian(R) 16 program.  It is based on
 the Gaussian(R) 09 system (copyright 2009, Gaussian, Inc.),
 the Gaussian(R) 03 system (copyright 2003, Gaussian, Inc.),
 the Gaussian(R) 98 system (copyright 1998, Gaussian, Inc.),
 the Gaussian(R) 94 system (copyright 1995, Gaussian, Inc.),
 the Gaussian 92(TM) system (copyright 1992, Gaussian, Inc.),
 the Gaussian 90(TM) system (copyright 1990, Gaussian, Inc.),
 the Gaussian 88(TM) system (copyright 1988, Gaussian, Inc.),
 the Gaussian 86(TM) system (copyright 1986, Carnegie Mellon
 University), and the Gaussian 82(TM) system (copyright 1983,
 Carnegie Mellon University). Gaussian is a federally registered
 trademark of Gaussian, Inc.
  
 This software contains proprietary and confidential information,
 including trade secrets, belonging to Gaussian, Inc.
  
 This software is provided under written license and may be
 used, copied, transmitted, or stored only in accord with that
 written license.
  
 The following legend is applicable only to US Government
 contracts under FAR:
  
                    RESTRICTED RIGHTS LEGEND
  
 Use, reproduction and disclosure by the US Government is
 subject to restrictions as set forth in subparagraphs (a)
 and (c) of the Commercial Computer Software - Restricted
 Rights clause in FAR 52.227-19.
  
 Gaussian, Inc.
 340 Quinnipiac St., Bldg. 40, Wallingford CT 06492
  
  
 ---------------------------------------------------------------
 Warning -- This program may not be used in any manner that
 competes with the business of Gaussian, Inc. or will provide
 assistance to any competitor of Gaussian, Inc.  The licensee
 of this program is prohibited from giving any competitor of
 Gaussian, Inc. access to this program.  By using this program,
 the user acknowledges that Gaussian, Inc. is engaged in the
 business of creating and licensing software in the field of
 computational chemistry and represents and warrants to the
 licensee that it is not a competitor of Gaussian, Inc. and that
 it will not use this program in any manner prohibited above.
 ---------------------------------------------------------------
  

 Cite this work as:
 Gaussian 16, Revision C.01,
 M. J. Frisch, G. W. Trucks, H. B. Schlegel, G. E. Scuseria, 
 M. A. Robb, J. R. Cheeseman, G. Scalmani, V. Barone, 
 G. A. Petersson, H. Nakatsuji, X. Li, M. Caricato, A. V. Marenich, 
 J. Bloino, B. G. Janesko, R. Gomperts, B. Mennucci, H. P. Hratchian, 
 J. V. Ortiz, A. F. Izmaylov, J. L. Sonnenberg, D. Williams-Young, 
 F. Ding, F. Lipparini, F. Egidi, J. Goings, B. Peng, A. Petrone, 
 T. Henderson, D. Ranasinghe, V. G. Zakrzewski, J. Gao, N. Rega, 
 G. Zheng, W. Liang, M. Hada, M. Ehara, K. Toyota, R. Fukuda, 
 J. Hasegawa, M. Ishida, T. Nakajima, Y. Honda, O. Kitao, H. Nakai, 
 T. Vreven, K. Throssell, J. A. Montgomery, Jr., J. E. Peralta, 
 F. Ogliaro, M. J. Bearpark, J. J. Heyd, E. N. Brothers, K. N. Kudin, 
 V. N. Staroverov, T. A. Keith, R. Kobayashi, J. Normand, 
 K. Raghavachari, A. P. Rendell, J. C. Burant, S. S. Iyengar, 
 J. Tomasi, M. Cossi, J. M. Millam, M. Klene, C. Adamo, R. Cammi, 
 J. W. Ochterski, R. L. Martin, K. Morokuma, O. Farkas, 
 J. B. Foresman, and D. J. Fox, Gaussian, Inc., Wallingford CT, 2019.
 
 ******************************************
 Gaussian 16:  EM64W-G16RevC.01 30-May-2019
                12-Nov-2025 
 ******************************************
 %chk=C:\Users\al6323\OneDrive - Imperial College London\Desktop\TSR202511112\Exe
 rcise 1\PM6\TS_guess_opt_TS(Berny)_IRC_Reactant.chk
 Default route: MaxDisk=10GB
 ----------------------------------------------------------------------
 # opt=(calcfc,tight,maxcycles=200,cartesian) freq pm6 nosymm scf=(xqc,
 tight)
 ----------------------------------------------------------------------
 1/6=200,7=10,10=4,18=10,26=1,38=1/1,3;
 2/12=2,15=1,17=6,18=5,29=2,40=1/2;
 3/5=2,25=1,41=3900000,71=2,140=1/1,2,3;
 4/35=1/1;
 5/5=2,8=3,13=1,32=2,35=1,38=5/2,8;
 8/6=4,10=90,11=11/1;
 11/6=1,8=1,9=11,15=111,16=1,31=1/1,2,10;
 10/6=1,13=1,31=1/2;
 6/7=2,8=2,9=2,10=2,28=1/1;
 7/7=1,10=1,25=1,30=1/1,2,3,16;
 1/6=200,7=10,10=4,18=10,26=1/3(2);
 2/15=1,29=1/2;
 99/12=1/99;
 2/15=1,29=1/2;
 3/5=2,25=1,41=3900000,71=1,135=20/1,2,3;
 4/5=5,16=3,35=1/1;
 5/5=2,8=3,13=1,32=2,35=1,38=5/2,8;
 7/7=1,30=1/1,2,3,16;
 1/6=200,7=10,18=10,26=1/3(-5);
 2/15=1,29=1/2;
 6/7=2,8=2,9=2,10=2,19=2,28=1/1;
 99/9=1,12=1/99;
 --------------
 TS (Berny)_IRC
 --------------
 Symbolic Z-matrix:
 Charge =  0 Multiplicity = 1
 C                    -1.427     0.03778  -1.00254 
 C                    -0.64993  -0.93135  -1.48697 
 C                     0.79115  -1.0482   -1.21669 
 C                     1.6475   -0.02722  -1.26675 
 C                     0.4527    0.99307   2.11467 
 C                    -0.76993   0.81328   2.59934 
 H                    -1.06329   0.8329   -0.36457 
 H                    -2.48641   0.10305  -1.20279 
 H                    -1.05495  -1.72482  -2.12166 
 H                     1.12496  -2.06236  -0.97878 
 H                     1.3543    0.98515  -1.50901 
 H                     2.70611  -0.13192  -1.0795 
 H                     1.15605   1.70916   2.51721 
 H                     0.84844   0.43558   1.27327 
 H                    -1.16723   1.36656   3.43932 
 H                    -1.47084   0.09435   2.1951 
 

 GradGradGradGradGradGradGradGradGradGradGradGradGradGradGradGradGradGrad
 Berny optimization.
 Initialization pass.
 No Z-matrix variables, so optimization will use Cartesian coordinates.
 Trust Radius=3.00D-01 FncErr=1.00D-07 GrdErr=1.00D-07 EigMax=2.50D+02 EigMin=1.00D-04
 Number of steps in this run=    100 maximum allowed number of steps=    100.
 GradGradGradGradGradGradGradGradGradGradGradGradGradGradGradGradGradGrad

 ---------------------------------------------------------------------------------------------------
                            Z-MATRIX (ANGSTROMS AND DEGREES)
   CD    Cent   Atom    N1       Length/X        N2       Alpha/Y        N3        Beta/Z          J
 ---------------------------------------------------------------------------------------------------
      1      1  C        0  -1.426995          0.037778         -1.002542
      2      2  C        0  -0.649925         -0.931345         -1.486966
      3      3  C        0   0.791148         -1.048197         -1.216690
      4      4  C        0   1.647496         -0.027217         -1.266749
      5      5  C        0   0.452696          0.993070          2.114669
      6      6  C        0  -0.769931          0.813284          2.599341
      7      7  H        0  -1.063290          0.832900         -0.364574
      8      8  H        0  -2.486405          0.103050         -1.202787
      9      9  H        0  -1.054946         -1.724823         -2.121662
     10     10  H        0   1.124959         -2.062364         -0.978777
     11     11  H        0   1.354298          0.985150         -1.509006
     12     12  H        0   2.706115         -0.131917         -1.079505
     13     13  H        0   1.156049          1.709162          2.517211
     14     14  H        0   0.848439          0.435583          1.273268
     15     15  H        0  -1.167227          1.366557          3.439324
     16     16  H        0  -1.470842          0.094353          2.195101
 ---------------------------------------------------------------------------------------------------
                         Z-Matrix orientation:                         
 ---------------------------------------------------------------------
 Center     Atomic      Atomic             Coordinates (Angstroms)
 Number     Number       Type             X           Y           Z
 ---------------------------------------------------------------------
      1          6           0       -1.426995    0.037778   -1.002542
      2          6           0       -0.649925   -0.931345   -1.486966
      3          6           0        0.791148   -1.048197   -1.216690
      4          6           0        1.647496   -0.027217   -1.266749
      5          6           0        0.452696    0.993070    2.114669
      6          6           0       -0.769931    0.813284    2.599341
      7          1           0       -1.063290    0.832900   -0.364574
      8          1           0       -2.486405    0.103050   -1.202787
      9          1           0       -1.054946   -1.724823   -2.121662
     10          1           0        1.124959   -2.062364   -0.978777
     11          1           0        1.354298    0.985150   -1.509006
     12          1           0        2.706115   -0.131917   -1.079505
     13          1           0        1.156049    1.709162    2.517211
     14          1           0        0.848439    0.435583    1.273268
     15          1           0       -1.167227    1.366557    3.439324
     16          1           0       -1.470842    0.094353    2.195101
 ---------------------------------------------------------------------
                    Distance matrix (angstroms):
                    1          2          3          4          5
     1  C    0.000000
     2  C    1.333306   0.000000
     3  C    2.478984   1.470849   0.000000
     4  C    3.086507   2.478727   1.333506   0.000000
     5  C    3.763353   4.229766   3.921641   3.728608   0.000000
     6  C    3.742553   4.444777   4.523734   4.636491   1.327422
     7  H    1.082360   2.131478   2.775530   2.983636   2.910415
     8  H    1.080143   2.126826   3.473891   4.136448   4.520616
     9  H    2.120757   1.093840   2.164454   3.303927   5.254182
    10  H    3.305092   2.165104   1.093877   2.120801   4.399662
    11  H    2.981545   2.773148   2.130044   1.081453   3.734163
    12  H    4.137308   3.473919   2.127319   1.080137   4.067706
    13  H    4.674859   5.125159   4.655985   4.192241   1.081450
    14  H    3.242709   3.425271   2.899099   2.702659   1.084140
    15  H    4.643631   5.460430   5.598637   5.657950   2.125642
    16  H    3.198444   3.909421   4.249980   4.660817   2.124655
                    6          7          8          9         10
     6  C    0.000000
     7  H    2.978462   0.000000
     8  H    4.231654   1.805696   0.000000
     9  H    5.367596   3.103123   2.496903   0.000000
    10  H    4.966175   3.680793   4.216770   2.484372   0.000000
    11  H    4.628218   2.679112   3.952578   3.677466   3.101787
    12  H    5.148806   3.956060   5.199295   4.215331   2.497364
    13  H    2.125734   3.741388   5.448436   6.180606   5.142695
    14  H    2.126087   2.548548   4.166847   4.451492   3.374599
    15  H    1.081447   3.842556   4.988575   6.363475   6.044108
    16  H    1.082380   2.695085   3.546419   4.702851   4.632830
                   11         12         13         14         15
    11  H    0.000000
    12  H    1.805469   0.000000
    13  H    4.095598   4.327660   0.000000
    14  H    2.880793   3.050993   1.806660   0.000000
    15  H    5.566825   6.137427   2.522951   3.101841   0.000000
    16  H    4.742925   5.312363   3.100310   2.518983   1.805209
                   16
    16  H    0.000000
 Symmetry turned off by external request.
 Stoichiometry    C6H10
 Framework group  C1[X(C6H10)]
 Deg. of freedom    42
 Full point group                 C1      NOp   1
 Rotational constants (GHZ):           4.3023376           1.6505407           1.2954342
 Standard basis: VSTO-6G (5D, 7F)
    34 basis functions,   204 primitive gaussians,    34 cartesian basis functions
    17 alpha electrons       17 beta electrons
       nuclear repulsion energy       130.9317293171 Hartrees.
 Integral buffers will be    131072 words long.
 Regular integral format.
 Two-electron integral symmetry is turned off.
 Do NDO integrals.
 One-electron integrals computed using PRISM.
 NBasis=    34 RedAO= F EigKep=  0.00D+00  NBF=    34
 NBsUse=    34 1.00D-04 EigRej=  0.00D+00 NBFU=    34
 Simple Huckel Guess.
 Keep J ints in memory in canonical form, NReq=862294.
 Overlap will be assumed to be unity.
 Requested convergence on RMS density matrix=1.00D-08 within  32 cycles.
 Requested convergence on MAX density matrix=1.00D-06.
 Requested convergence on             energy=1.00D-06.
 No special actions if energy rises.
 SCF Done:  E(RPM6) =  0.705855766808E-01 A.U. after   13 cycles
            NFock= 12  Conv=0.54D-08     -V/T= 1.0014
 QCSCF skips out because SCF is already converged.
 Range of M.O.s used for correlation:     1    34
 NBasis=    34 NAE=    17 NBE=    17 NFC=     0 NFV=     0
 NROrb=     34 NOA=    17 NOB=    17 NVA=    17 NVB=    17
 Symmetrizing basis deriv contribution to polar:
 IMax=3 JMax=2 DiffMx= 0.00D+00
 G2DrvN: will do    17 centers at a time, making    1 passes.
 Calling FoFCou, ICntrl=  3107 FMM=F I1Cent=   0 AccDes= 0.00D+00.
 End of G2Drv F.D. properties file   721 does not exist.
 End of G2Drv F.D. properties file   722 does not exist.
 End of G2Drv F.D. properties file   788 does not exist.
          IDoAtm=1111111111111111
          Differentiating once with respect to nuclear coordinates.
          Electric field/nuclear overlap derivatives assumed to be zero.
 Keep J ints in memory in canonical form, NReq=863961.
          There are    51 degrees of freedom in the 1st order CPHF.  IDoFFX=5 NUNeed=    51.
 LinEq1:  Iter=  0 NonCon=    48 RMS=1.52D-02 Max=1.12D-01 NDo=    48
 AX will form    51 AO Fock derivatives at one time.
 LinEq1:  Iter=  1 NonCon=    48 RMS=1.52D-03 Max=1.53D-02 NDo=    51
 LinEq1:  Iter=  2 NonCon=    48 RMS=1.98D-04 Max=1.60D-03 NDo=    51
 LinEq1:  Iter=  3 NonCon=    48 RMS=3.18D-05 Max=2.56D-04 NDo=    51
 LinEq1:  Iter=  4 NonCon=    48 RMS=5.05D-06 Max=2.74D-05 NDo=    51
 LinEq1:  Iter=  5 NonCon=    48 RMS=7.87D-07 Max=4.79D-06 NDo=    51
 LinEq1:  Iter=  6 NonCon=    47 RMS=1.08D-07 Max=8.00D-07 NDo=    51
 LinEq1:  Iter=  7 NonCon=     5 RMS=1.51D-08 Max=7.87D-08 NDo=    51
 LinEq1:  Iter=  8 NonCon=     0 RMS=1.95D-09 Max=9.02D-09 NDo=     5
 Linear equations converged to 1.000D-08 1.000D-07 after     8 iterations.
 End of Minotr F.D. properties file   721 does not exist.
 End of Minotr F.D. properties file   722 does not exist.
 End of Minotr F.D. properties file   788 does not exist.

 **********************************************************************

            Population analysis using the SCF Density.

 **********************************************************************

 Alpha  occ. eigenvalues --   -1.03592  -0.98353  -0.94274  -0.80341  -0.75333
 Alpha  occ. eigenvalues --   -0.68383  -0.61531  -0.58559  -0.54491  -0.53774
 Alpha  occ. eigenvalues --   -0.52787  -0.47239  -0.44009  -0.43538  -0.41311
 Alpha  occ. eigenvalues --   -0.38935  -0.35967
 Alpha virt. eigenvalues --    0.01859   0.04508   0.06246   0.15913   0.19518
 Alpha virt. eigenvalues --    0.20397   0.21028   0.21356   0.21391   0.21685
 Alpha virt. eigenvalues --    0.23185   0.23286   0.23443   0.23536   0.24087
 Alpha virt. eigenvalues --    0.24195   0.24439
          Condensed to atoms (all electrons):
               1          2          3          4          5          6
     1  C    4.331091   0.000000   0.000000   0.000000   0.000000   0.000000
     2  C    0.000000   4.116414   0.000000   0.000000   0.000000   0.000000
     3  C    0.000000   0.000000   4.109258   0.000000   0.000000   0.000000
     4  C    0.000000   0.000000   0.000000   4.337952   0.000000   0.000000
     5  C    0.000000   0.000000   0.000000   0.000000   4.290260   0.000000
     6  C    0.000000   0.000000   0.000000   0.000000   0.000000   4.290256
     7  H    0.000000   0.000000   0.000000   0.000000   0.000000   0.000000
     8  H    0.000000   0.000000   0.000000   0.000000   0.000000   0.000000
     9  H    0.000000   0.000000   0.000000   0.000000   0.000000   0.000000
    10  H    0.000000   0.000000   0.000000   0.000000   0.000000   0.000000
    11  H    0.000000   0.000000   0.000000   0.000000   0.000000   0.000000
    12  H    0.000000   0.000000   0.000000   0.000000   0.000000   0.000000
    13  H    0.000000   0.000000   0.000000   0.000000   0.000000   0.000000
    14  H    0.000000   0.000000   0.000000   0.000000   0.000000   0.000000
    15  H    0.000000   0.000000   0.000000   0.000000   0.000000   0.000000
    16  H    0.000000   0.000000   0.000000   0.000000   0.000000   0.000000
               7          8          9         10         11         12
     1  C    0.000000   0.000000   0.000000   0.000000   0.000000   0.000000
     2  C    0.000000   0.000000   0.000000   0.000000   0.000000   0.000000
     3  C    0.000000   0.000000   0.000000   0.000000   0.000000   0.000000
     4  C    0.000000   0.000000   0.000000   0.000000   0.000000   0.000000
     5  C    0.000000   0.000000   0.000000   0.000000   0.000000   0.000000
     6  C    0.000000   0.000000   0.000000   0.000000   0.000000   0.000000
     7  H    0.841225   0.000000   0.000000   0.000000   0.000000   0.000000
     8  H    0.000000   0.851380   0.000000   0.000000   0.000000   0.000000
     9  H    0.000000   0.000000   0.858396   0.000000   0.000000   0.000000
    10  H    0.000000   0.000000   0.000000   0.858659   0.000000   0.000000
    11  H    0.000000   0.000000   0.000000   0.000000   0.844469   0.000000
    12  H    0.000000   0.000000   0.000000   0.000000   0.000000   0.850532
    13  H    0.000000   0.000000   0.000000   0.000000   0.000000   0.000000
    14  H    0.000000   0.000000   0.000000   0.000000   0.000000   0.000000
    15  H    0.000000   0.000000   0.000000   0.000000   0.000000   0.000000
    16  H    0.000000   0.000000   0.000000   0.000000   0.000000   0.000000
              13         14         15         16
     1  C    0.000000   0.000000   0.000000   0.000000
     2  C    0.000000   0.000000   0.000000   0.000000
     3  C    0.000000   0.000000   0.000000   0.000000
     4  C    0.000000   0.000000   0.000000   0.000000
     5  C    0.000000   0.000000   0.000000   0.000000
     6  C    0.000000   0.000000   0.000000   0.000000
     7  H    0.000000   0.000000   0.000000   0.000000
     8  H    0.000000   0.000000   0.000000   0.000000
     9  H    0.000000   0.000000   0.000000   0.000000
    10  H    0.000000   0.000000   0.000000   0.000000
    11  H    0.000000   0.000000   0.000000   0.000000
    12  H    0.000000   0.000000   0.000000   0.000000
    13  H    0.858466   0.000000   0.000000   0.000000
    14  H    0.000000   0.848389   0.000000   0.000000
    15  H    0.000000   0.000000   0.858296   0.000000
    16  H    0.000000   0.000000   0.000000   0.854957
 Mulliken charges:
               1
     1  C   -0.331091
     2  C   -0.116414
     3  C   -0.109258
     4  C   -0.337952
     5  C   -0.290260
     6  C   -0.290256
     7  H    0.158775
     8  H    0.148620
     9  H    0.141604
    10  H    0.141341
    11  H    0.155531
    12  H    0.149468
    13  H    0.141534
    14  H    0.151611
    15  H    0.141704
    16  H    0.145043
 Sum of Mulliken charges =   0.00000
 Mulliken charges with hydrogens summed into heavy atoms:
               1
     1  C   -0.023696
     2  C    0.025189
     3  C    0.032083
     4  C   -0.032952
     5  C    0.002884
     6  C   -0.003508
 APT charges:
               1
     1  C   -0.331091
     2  C   -0.116414
     3  C   -0.109258
     4  C   -0.337952
     5  C   -0.290260
     6  C   -0.290256
     7  H    0.158775
     8  H    0.148620
     9  H    0.141604
    10  H    0.141341
    11  H    0.155531
    12  H    0.149468
    13  H    0.141534
    14  H    0.151611
    15  H    0.141704
    16  H    0.145043
 Sum of APT charges =   0.00000
 APT charges with hydrogens summed into heavy atoms:
               1
     1  C   -0.023696
     2  C    0.025189
     3  C    0.032083
     4  C   -0.032952
     5  C    0.002884
     6  C   -0.003508
 Charge=              0.0000 electrons
 Dipole moment (field-independent basis, Debye):
    X=             -0.0144    Y=             -0.1595    Z=             -0.0704  Tot=              0.1749
 N-N= 1.309317293171D+02 E-N=-1.901137699994D+02  KE=-5.056014071182D+01
  Exact polarizability:       0.000       0.000       0.000       0.000       0.000       0.000
 Approx polarizability:      48.452       3.332      33.321      -7.474       6.457      15.729
 Calling FoFJK, ICntrl=    100127 FMM=F ISym2X=0 I1Cent= 0 IOpClX= 0 NMat=1 NMatS=1 NMatT=0.
 -------------------------------------------------------------------
 Center     Atomic                   Forces (Hartrees/Bohr)
 Number     Number              X              Y              Z
 -------------------------------------------------------------------
      1        6          -0.000003698   -0.000022568   -0.000034496
      2        6          -0.000013259    0.000000019   -0.000008657
      3        6          -0.000031443    0.000008207   -0.000019928
      4        6           0.000017784    0.000046417   -0.000010759
      5        6          -0.000081645    0.000034445   -0.000047202
      6        6           0.000102841   -0.000056601    0.000034314
      7        1           0.000001259    0.000006044    0.000003751
      8        1           0.000007513   -0.000005297    0.000000491
      9        1           0.000006309    0.000014706    0.000008464
     10        1          -0.000005232   -0.000022680    0.000022071
     11        1           0.000011580   -0.000030915   -0.000005023
     12        1          -0.000009906    0.000010928   -0.000005155
     13        1          -0.000074461   -0.000077130   -0.000003959
     14        1          -0.000003820    0.000015088    0.000101222
     15        1          -0.000003470    0.000002771   -0.000054682
     16        1           0.000079646    0.000076565    0.000019548
 -------------------------------------------------------------------
 Cartesian Forces:  Max     0.000102841 RMS     0.000038592

 GradGradGradGradGradGradGradGradGradGradGradGradGradGradGradGradGradGrad
 Berny optimization.
 Search for a local minimum.
 Step number   1 out of a maximum of  100
 All quantities printed in internal units (Hartrees-Bohrs-Radians)
 Second derivative matrix not updated -- analytic derivatives used.
 ITU=  0
     Eigenvalues ---    0.00002   0.00006   0.00018   0.00022   0.00034
     Eigenvalues ---    0.00066   0.00106   0.00693   0.01061   0.02298
     Eigenvalues ---    0.02793   0.02903   0.03306   0.05126   0.05300
     Eigenvalues ---    0.06683   0.07094   0.07506   0.09450   0.10109
     Eigenvalues ---    0.10310   0.12111   0.12343   0.13220   0.15097
     Eigenvalues ---    0.19750   0.21224   0.23720   0.25168   0.27244
     Eigenvalues ---    0.35080   0.45609   0.45756   0.52997   0.56969
     Eigenvalues ---    0.61162   0.62839   0.63878   0.77383   1.50128
     Eigenvalues ---    1.52305   1.55069
 RFO step:  Lambda=-3.87069823D-06 EMin= 2.09925295D-05
 Linear search not attempted -- first point.
 B after Tr=    -0.000177    0.000098   -0.000440
         Rot=    1.000000   -0.000088   -0.000091    0.000063 Ang=  -0.02 deg.
 Variable       Old X    -DE/DX   Delta X   Delta X   Delta X     New X
                                 (Linear)    (Quad)   (Total)
    X1       -2.69663   0.00000   0.00000  -0.00940  -0.00992  -2.70655
    Y1        0.07139  -0.00002   0.00000  -0.00943  -0.00866   0.06273
    Z1       -1.89453  -0.00003   0.00000  -0.00425  -0.00418  -1.89871
    X2       -1.22818  -0.00001   0.00000  -0.00194  -0.00285  -1.23103
    Y2       -1.75999   0.00000   0.00000   0.00503   0.00578  -1.75421
    Z2       -2.80996  -0.00001   0.00000  -0.02087  -0.02139  -2.83135
    X3        1.49505  -0.00003   0.00000  -0.00524  -0.00608   1.48897
    Y3       -1.98081   0.00001   0.00000   0.00071   0.00103  -1.97978
    Z3       -2.29921  -0.00002   0.00000  -0.00448  -0.00554  -2.30475
    X4        3.11332   0.00002   0.00000  -0.00342  -0.00404   3.10928
    Y4       -0.05143   0.00005   0.00000  -0.00016  -0.00003  -0.05147
    Z4       -2.39381  -0.00001   0.00000   0.01045   0.00943  -2.38437
    X5        0.85547  -0.00008   0.00000   0.00956   0.01035   0.86582
    Y5        1.87663   0.00003   0.00000   0.00013  -0.00059   1.87604
    Z5        3.99614  -0.00005   0.00000   0.00685   0.00658   4.00273
    X6       -1.45496   0.00010   0.00000   0.00862   0.00953  -1.44543
    Y6        1.53688  -0.00006   0.00000   0.00466   0.00407   1.54095
    Z6        4.91204   0.00003   0.00000   0.00573   0.00583   4.91787
    X7       -2.00933   0.00000   0.00000  -0.01804  -0.01814  -2.02747
    Y7        1.57395   0.00001   0.00000  -0.02678  -0.02631   1.54765
    Z7       -0.68895   0.00000   0.00000   0.02254   0.02274  -0.66621
    X8       -4.69863   0.00001   0.00000  -0.00689  -0.00746  -4.70608
    Y8        0.19474  -0.00001   0.00000  -0.00519  -0.00410   0.19063
    Z8       -2.27294   0.00000   0.00000  -0.01582  -0.01536  -2.28830
    X9       -1.99356   0.00001   0.00000   0.00832   0.00700  -1.98656
    Y9       -3.25944   0.00001   0.00000   0.02164   0.02270  -3.23674
    Z9       -4.00936   0.00001   0.00000  -0.04797  -0.04862  -4.05798
   X10        2.12586  -0.00001   0.00000  -0.01034  -0.01134   2.11452
   Y10       -3.89730  -0.00002   0.00000  -0.00119  -0.00103  -3.89833
   Z10       -1.84962   0.00002   0.00000  -0.00525  -0.00677  -1.85639
   X11        2.55925   0.00001   0.00000   0.00021  -0.00025   2.55900
   Y11        1.86166  -0.00003   0.00000   0.00122   0.00149   1.86316
   Z11       -2.85161  -0.00001   0.00000   0.01221   0.01163  -2.83998
   X12        5.11382  -0.00001   0.00000  -0.00570  -0.00628   5.10754
   Y12       -0.24929   0.00001   0.00000  -0.00197  -0.00216  -0.25145
   Z12       -2.03997  -0.00001   0.00000   0.02188   0.02046  -2.01951
   X13        2.18462  -0.00007   0.00000  -0.00784  -0.00675   2.17787
   Y13        3.22985  -0.00008   0.00000   0.03540   0.03439   3.26424
   Z13        4.75684   0.00000   0.00000  -0.02624  -0.02650   4.73033
   X14        1.60332   0.00000   0.00000   0.02808   0.02845   1.63176
   Y14        0.82313   0.00002   0.00000  -0.03975  -0.04028   0.78285
   Z14        2.40613   0.00010   0.00000   0.04245   0.04185   2.44798
   X15       -2.20574   0.00000   0.00000  -0.01011  -0.00878  -2.21452
   Y15        2.58242   0.00000   0.00000   0.04541   0.04464   2.62706
   Z15        6.49938  -0.00005   0.00000  -0.03013  -0.02971   6.46967
   X16       -2.77949   0.00008   0.00000   0.02596   0.02657  -2.75292
   Y16        0.17830   0.00008   0.00000  -0.03065  -0.03094   0.14736
   Z16        4.14814   0.00002   0.00000   0.03945   0.03954   4.18768
         Item               Value     Threshold  Converged?
 Maximum Force            0.000103     0.000015     NO 
 RMS     Force            0.000039     0.000010     NO 
 Maximum Displacement     0.048616     0.000060     NO 
 RMS     Displacement     0.019896     0.000040     NO 
 Predicted change in Energy=-1.975670D-06
 GradGradGradGradGradGradGradGradGradGradGradGradGradGradGradGradGradGrad

                          Input orientation:                          
 ---------------------------------------------------------------------
 Center     Atomic      Atomic             Coordinates (Angstroms)
 Number     Number       Type             X           Y           Z
 ---------------------------------------------------------------------
      1          6           0       -1.432245    0.033193   -1.004756
      2          6           0       -0.651435   -0.928287   -1.498285
      3          6           0        0.787929   -1.047653   -1.219621
      4          6           0        1.645359   -0.027234   -1.261756
      5          6           0        0.458171    0.992760    2.118152
      6          6           0       -0.764888    0.815438    2.602425
      7          1           0       -1.072890    0.818979   -0.352541
      8          1           0       -2.490353    0.100879   -1.210916
      9          1           0       -1.051243   -1.712810   -2.147389
     10          1           0        1.118958   -2.062909   -0.982358
     11          1           0        1.354165    0.985940   -1.502853
     12          1           0        2.702792   -0.133060   -1.068678
     13          1           0        1.152478    1.727361    2.503185
     14          1           0        0.863492    0.414265    1.295415
     15          1           0       -1.171871    1.390182    3.423604
     16          1           0       -1.456783    0.077980    2.216025
 ---------------------------------------------------------------------
                    Distance matrix (angstroms):
                    1          2          3          4          5
     1  C    0.000000
     2  C    1.333296   0.000000
     3  C    2.478622   1.470942   0.000000
     4  C    3.088907   2.478529   1.333497   0.000000
     5  C    3.774519   4.242672   3.925909   3.724726   0.000000
     6  C    3.750870   4.457496   4.526630   4.631553   1.327342
     7  H    1.082581   2.131500   2.774670   2.988583   2.911816
     8  H    1.080128   2.126825   3.473663   4.138008   4.535630
     9  H    2.121155   1.093918   2.164657   3.301086   5.271933
    10  H    3.301936   2.165142   1.093901   2.121116   4.403057
    11  H    2.986621   2.772493   2.129869   1.081409   3.730219
    12  H    4.138871   3.473871   2.127431   1.080112   4.057300
    13  H    4.675109   5.130140   4.657562   4.182861   1.081643
    14  H    3.272065   3.449958   2.910039   2.710233   1.084360
    15  H    4.638921   5.465450   5.598518   5.647872   2.125838
    16  H    3.221186   3.931572   4.255519   4.661471   2.124488
                    6          7          8          9         10
     6  C    0.000000
     7  H    2.970976   0.000000
     8  H    4.246103   1.806012   0.000000
     9  H    5.388391   3.103531   2.497496   0.000000
    10  H    4.968342   3.675071   4.214421   2.487898   0.000000
    11  H    4.623069   2.691039   3.955866   3.672147   3.101890
    12  H    5.138233   3.959167   5.200357   4.213312   2.498058
    13  H    2.125499   3.732639   5.450707   6.190234   5.149396
    14  H    2.126225   2.574709   4.198593   4.477003   3.374893
    15  H    1.081805   3.820385   4.987933   6.378015   6.048491
    16  H    1.082528   2.700738   3.579486   4.734001   4.631144
                   11         12         13         14         15
    11  H    0.000000
    12  H    1.805399   0.000000
    13  H    4.079060   4.315420   0.000000
    14  H    2.897910   3.044918   1.807330   0.000000
    15  H    5.551059   6.124858   2.522590   3.102307   0.000000
    16  H    4.749303   5.304325   3.100187   2.518786   1.805906
                   16
    16  H    0.000000
 Symmetry turned off by external request.
 Stoichiometry    C6H10
 Framework group  C1[X(C6H10)]
 Deg. of freedom    42
 Full point group                 C1      NOp   1
 Rotational constants (GHZ):           4.2991843           1.6472510           1.2922656
 Standard basis: VSTO-6G (5D, 7F)
    34 basis functions,   204 primitive gaussians,    34 cartesian basis functions
    17 alpha electrons       17 beta electrons
       nuclear repulsion energy       130.8811917653 Hartrees.
 Integral buffers will be    131072 words long.
 Regular integral format.
 Two-electron integral symmetry is turned off.
 Do NDO integrals.
 One-electron integrals computed using PRISM.
 NBasis=    34 RedAO= F EigKep=  0.00D+00  NBF=    34
 NBsUse=    34 1.00D-04 EigRej=  0.00D+00 NBFU=    34
 Initial guess from the checkpoint file:  "C:\Users\al6323\OneDrive - Imperial College London\Desktop\TSR202511112\Exercise 1\PM6\TS_guess_opt_TS(Berny)_IRC_Reactant.chk"
 B after Tr=    -0.000349    0.000188   -0.001015
         Rot=    1.000000   -0.000224   -0.000232    0.000180 Ang=  -0.04 deg.
 Keep J ints in memory in canonical form, NReq=862294.
 Overlap will be assumed to be unity.
 Requested convergence on RMS density matrix=1.00D-08 within  32 cycles.
 Requested convergence on MAX density matrix=1.00D-06.
 Requested convergence on             energy=1.00D-06.
 No special actions if energy rises.
 SCF Done:  E(RPM6) =  0.705837539356E-01 A.U. after   11 cycles
            NFock= 10  Conv=0.97D-08     -V/T= 1.0014
 QCSCF skips out because SCF is already converged.
 Calling FoFJK, ICntrl=      2127 FMM=F ISym2X=0 I1Cent= 0 IOpClX= 0 NMat=1 NMatS=1 NMatT=0.
 -------------------------------------------------------------------
 Center     Atomic                   Forces (Hartrees/Bohr)
 Number     Number              X              Y              Z
 -------------------------------------------------------------------
      1        6           0.000044235   -0.000025448   -0.000006315
      2        6          -0.000032678    0.000027811    0.000008962
      3        6          -0.000002702    0.000015869   -0.000010687
      4        6          -0.000016820   -0.000023026    0.000001139
      5        6           0.000111215    0.000006268   -0.000053626
      6        6          -0.000115065   -0.000004482    0.000058025
      7        1          -0.000020073   -0.000059859   -0.000048572
      8        1           0.000013353    0.000005519    0.000007249
      9        1           0.000026534    0.000060869    0.000048737
     10        1          -0.000001074    0.000003916   -0.000000993
     11        1           0.000000432   -0.000002824    0.000000396
     12        1          -0.000011697   -0.000001660   -0.000000776
     13        1          -0.000096331   -0.000136526   -0.000092704
     14        1          -0.000057530    0.000132113    0.000172391
     15        1           0.000060948   -0.000136911   -0.000177668
     16        1           0.000097253    0.000138371    0.000094441
 -------------------------------------------------------------------
 Cartesian Forces:  Max     0.000177668 RMS     0.000069187

 GradGradGradGradGradGradGradGradGradGradGradGradGradGradGradGradGradGrad
 Berny optimization.
 Search for a local minimum.
 Step number   2 out of a maximum of  100
 All quantities printed in internal units (Hartrees-Bohrs-Radians)
 Update second derivatives using D2CorN and points    1    2
 DE= -1.82D-06 DEPred=-1.98D-06 R= 9.23D-01
 TightC=F SS=  1.41D+00  RLast= 1.38D-01 DXNew= 5.0454D-01 4.1352D-01
 Trust test= 9.23D-01 RLast= 1.38D-01 DXMaxT set to 4.14D-01
 ITU=  1  0
     Eigenvalues ---    0.00003   0.00006   0.00018   0.00022   0.00035
     Eigenvalues ---    0.00066   0.00107   0.00693   0.01061   0.02298
     Eigenvalues ---    0.02792   0.02903   0.03306   0.05126   0.05301
     Eigenvalues ---    0.06683   0.07094   0.07505   0.09451   0.10108
     Eigenvalues ---    0.10310   0.12110   0.12343   0.13221   0.15096
     Eigenvalues ---    0.19749   0.21224   0.23721   0.25168   0.27243
     Eigenvalues ---    0.35082   0.45605   0.45756   0.52994   0.56969
     Eigenvalues ---    0.61162   0.62845   0.63876   0.77382   1.50128
     Eigenvalues ---    1.52304   1.55069
 RFO step:  Lambda=-6.99342965D-07 EMin= 3.27266429D-05
 Quartic linear search produced a step of -0.12195.
 B after Tr=    -0.000037   -0.000006    0.000008
         Rot=    1.000000    0.000006   -0.000019    0.000007 Ang=   0.00 deg.
 Variable       Old X    -DE/DX   Delta X   Delta X   Delta X     New X
                                 (Linear)    (Quad)   (Total)
    X1       -2.70655   0.00004   0.00121  -0.00198  -0.00088  -2.70743
    Y1        0.06273  -0.00003   0.00106  -0.00070   0.00036   0.06309
    Z1       -1.89871  -0.00001   0.00051  -0.00353  -0.00291  -1.90162
    X2       -1.23103  -0.00003   0.00035  -0.00045  -0.00027  -1.23130
    Y2       -1.75421   0.00003  -0.00070  -0.00031  -0.00104  -1.75525
    Z2       -2.83135   0.00001   0.00261  -0.00153   0.00115  -2.83020
    X3        1.48897   0.00000   0.00074  -0.00114  -0.00055   1.48842
    Y3       -1.97978   0.00002  -0.00013   0.00016  -0.00002  -1.97980
    Z3       -2.30475  -0.00001   0.00068   0.00223   0.00288  -2.30187
    X4        3.10928  -0.00002   0.00049  -0.00071  -0.00034   3.10893
    Y4       -0.05147  -0.00002   0.00000  -0.00040  -0.00047  -0.05194
    Z4       -2.38437   0.00000  -0.00115  -0.00029  -0.00156  -2.38593
    X5        0.86582   0.00011  -0.00126   0.00191   0.00079   0.86661
    Y5        1.87604   0.00001   0.00007   0.00199   0.00209   1.87814
    Z5        4.00273  -0.00005  -0.00080   0.00212   0.00127   4.00399
    X6       -1.44543  -0.00012  -0.00116   0.00195   0.00096  -1.44447
    Y6        1.54095   0.00000  -0.00050  -0.00079  -0.00121   1.53974
    Z6        4.91787   0.00006  -0.00071   0.00111   0.00044   4.91831
    X7       -2.02747  -0.00002   0.00221  -0.00380  -0.00162  -2.02909
    Y7        1.54765  -0.00006   0.00321  -0.00081   0.00242   1.55006
    Z7       -0.66621  -0.00005  -0.00277  -0.00275  -0.00546  -0.67167
    X8       -4.70608   0.00001   0.00091  -0.00147  -0.00068  -4.70677
    Y8        0.19063   0.00001   0.00050  -0.00093  -0.00040   0.19024
    Z8       -2.28830   0.00001   0.00187  -0.00610  -0.00404  -2.29234
    X9       -1.98656   0.00003  -0.00085   0.00162   0.00053  -1.98603
    Y9       -3.23674   0.00006  -0.00277  -0.00028  -0.00307  -3.23981
    Z9       -4.05798   0.00005   0.00593  -0.00248   0.00357  -4.05440
   X10        2.11452   0.00000   0.00138  -0.00222  -0.00100   2.11353
   Y10       -3.89833   0.00000   0.00013   0.00103   0.00110  -3.89724
   Z10       -1.85639   0.00000   0.00083   0.00748   0.00828  -1.84811
   X11        2.55900   0.00000   0.00003   0.00016   0.00007   2.55907
   Y11        1.86316   0.00000  -0.00018  -0.00138  -0.00164   1.86152
   Z11       -2.83998   0.00000  -0.00142  -0.00537  -0.00690  -2.84688
   X12        5.10754  -0.00001   0.00077  -0.00120  -0.00055   5.10699
   Y12       -0.25145   0.00000   0.00026   0.00007   0.00023  -0.25121
   Z12       -2.01951   0.00000  -0.00249   0.00254  -0.00015  -2.01965
   X13        2.17787  -0.00010   0.00082   0.00209   0.00310   2.18097
   Y13        3.26424  -0.00014  -0.00419  -0.00139  -0.00556   3.25868
   Z13        4.73033  -0.00009   0.00323   0.00623   0.00935   4.73968
   X14        1.63176  -0.00006  -0.00347   0.00176  -0.00164   1.63012
   Y14        0.78285   0.00013   0.00491   0.00777   0.01268   0.79553
   Z14        2.44798   0.00017  -0.00510  -0.00086  -0.00603   2.44195
   X15       -2.21452   0.00006   0.00107   0.00212   0.00344  -2.21108
   Y15        2.62706  -0.00014  -0.00544  -0.00658  -0.01192   2.61514
   Z15        6.46967  -0.00018   0.00362   0.00410   0.00778   6.47746
   X16       -2.75292   0.00010  -0.00324   0.00176  -0.00135  -2.75427
   Y16        0.14736   0.00014   0.00377   0.00260   0.00646   0.15382
   Z16        4.18768   0.00009  -0.00482  -0.00297  -0.00768   4.18000
         Item               Value     Threshold  Converged?
 Maximum Force            0.000178     0.000015     NO 
 RMS     Force            0.000069     0.000010     NO 
 Maximum Displacement     0.012682     0.000060     NO 
 RMS     Displacement     0.004273     0.000040     NO 
 Predicted change in Energy=-4.550017D-07
 GradGradGradGradGradGradGradGradGradGradGradGradGradGradGradGradGradGrad

                          Input orientation:                          
 ---------------------------------------------------------------------
 Center     Atomic      Atomic             Coordinates (Angstroms)
 Number     Number       Type             X           Y           Z
 ---------------------------------------------------------------------
      1          6           0       -1.432711    0.033385   -1.006295
      2          6           0       -0.651577   -0.928838   -1.497676
      3          6           0        0.787639   -1.047666   -1.218095
      4          6           0        1.645177   -0.027484   -1.262580
      5          6           0        0.458590    0.993868    2.118822
      6          6           0       -0.764381    0.814797    2.602658
      7          1           0       -1.073750    0.820258   -0.355430
      8          1           0       -2.490715    0.100668   -1.213056
      9          1           0       -1.050961   -1.714436   -2.145499
     10          1           0        1.118430   -2.062329   -0.977975
     11          1           0        1.354203    0.985073   -1.506505
     12          1           0        2.702500   -0.132936   -1.068755
     13          1           0        1.154120    1.724417    2.508131
     14          1           0        0.862622    0.420976    1.292224
     15          1           0       -1.170051    1.383874    3.427723
     16          1           0       -1.457498    0.081397    2.211963
 ---------------------------------------------------------------------
                    Distance matrix (angstroms):
                    1          2          3          4          5
     1  C    0.000000
     2  C    1.333229   0.000000
     3  C    2.478606   1.470928   0.000000
     4  C    3.089139   2.478464   1.333461   0.000000
     5  C    3.777023   4.243622   3.925703   3.726262   0.000000
     6  C    3.752574   4.457098   4.525007   4.632005   1.327337
     7  H    1.082426   2.131265   2.774544   2.989004   2.915498
     8  H    1.080115   2.126810   3.473658   4.138173   4.538459
     9  H    2.120943   1.093776   2.164512   3.300683   5.272389
    10  H    3.301687   2.165136   1.093902   2.121097   4.400668
    11  H    2.987107   2.772416   2.129836   1.081406   3.734327
    12  H    4.139026   3.473797   2.127375   1.080103   4.057766
    13  H    4.680008   5.132913   4.658702   4.186712   1.081214
    14  H    3.271386   3.449397   2.909335   2.709342   1.083841
    15  H    4.642556   5.465986   5.597192   5.649459   2.125511
    16  H    3.218712   3.928295   4.252143   4.659495   2.124306
                    6          7          8          9         10
     6  C    0.000000
     7  H    2.974226   0.000000
     8  H    4.248515   1.805857   0.000000
     9  H    5.387405   3.103150   2.497388   0.000000
    10  H    4.964249   3.674577   4.214231   2.488050   0.000000
    11  H    4.626296   2.692043   3.956220   3.671577   3.101869
    12  H    5.137775   3.959479   5.200469   4.212955   2.498015
    13  H    2.125321   3.739103   5.456062   6.192282   5.147199
    14  H    2.125905   2.573659   4.198082   4.476575   3.374322
    15  H    1.081272   3.826118   4.992754   6.377657   6.043479
    16  H    1.082095   2.699015   3.577522   4.730514   4.626734
                   11         12         13         14         15
    11  H    0.000000
    12  H    1.805402   0.000000
    13  H    4.087049   4.317563   0.000000
    14  H    2.897023   3.044042   1.806200   0.000000
    15  H    5.556753   6.125004   2.522576   3.101498   0.000000
    16  H    4.748611   5.302324   3.099642   2.518768   1.804756
                   16
    16  H    0.000000
 Symmetry turned off by external request.
 Stoichiometry    C6H10
 Framework group  C1[X(C6H10)]
 Deg. of freedom    42
 Full point group                 C1      NOp   1
 Rotational constants (GHZ):           4.2973341           1.6469344           1.2920790
 Standard basis: VSTO-6G (5D, 7F)
    34 basis functions,   204 primitive gaussians,    34 cartesian basis functions
    17 alpha electrons       17 beta electrons
       nuclear repulsion energy       130.8801371660 Hartrees.
 Integral buffers will be    131072 words long.
 Regular integral format.
 Two-electron integral symmetry is turned off.
 Do NDO integrals.
 One-electron integrals computed using PRISM.
 NBasis=    34 RedAO= F EigKep=  0.00D+00  NBF=    34
 NBsUse=    34 1.00D-04 EigRej=  0.00D+00 NBFU=    34
 Initial guess from the checkpoint file:  "C:\Users\al6323\OneDrive - Imperial College London\Desktop\TSR202511112\Exercise 1\PM6\TS_guess_opt_TS(Berny)_IRC_Reactant.chk"
 B after Tr=    -0.000033   -0.000034    0.000141
         Rot=    1.000000    0.000043   -0.000022   -0.000003 Ang=   0.01 deg.
 Keep J ints in memory in canonical form, NReq=862294.
 Overlap will be assumed to be unity.
 Requested convergence on RMS density matrix=1.00D-08 within  32 cycles.
 Requested convergence on MAX density matrix=1.00D-06.
 Requested convergence on             energy=1.00D-06.
 No special actions if energy rises.
 SCF Done:  E(RPM6) =  0.705835440933E-01 A.U. after   10 cycles
            NFock=  9  Conv=0.87D-08     -V/T= 1.0014
 QCSCF skips out because SCF is already converged.
 Calling FoFJK, ICntrl=      2127 FMM=F ISym2X=0 I1Cent= 0 IOpClX= 0 NMat=1 NMatS=1 NMatT=0.
 -------------------------------------------------------------------
 Center     Atomic                   Forces (Hartrees/Bohr)
 Number     Number              X              Y              Z
 -------------------------------------------------------------------
      1        6          -0.000006973    0.000007090    0.000002973
      2        6           0.000009800   -0.000007911   -0.000002486
      3        6          -0.000010693   -0.000008837   -0.000000677
      4        6           0.000008129    0.000007986   -0.000000499
      5        6          -0.000026976   -0.000001259    0.000013629
      6        6           0.000027794   -0.000000672   -0.000013968
      7        1          -0.000000568    0.000002567    0.000001596
      8        1           0.000002890    0.000000903    0.000001107
      9        1           0.000001448   -0.000000987   -0.000000405
     10        1          -0.000002367    0.000000659   -0.000000743
     11        1           0.000001730    0.000000421   -0.000000117
     12        1          -0.000002926    0.000001150   -0.000001317
     13        1           0.000022016    0.000035426    0.000021170
     14        1           0.000016809   -0.000037036   -0.000041975
     15        1          -0.000017760    0.000037154    0.000043195
     16        1          -0.000022352   -0.000036654   -0.000021483
 -------------------------------------------------------------------
 Cartesian Forces:  Max     0.000043195 RMS     0.000017074

 GradGradGradGradGradGradGradGradGradGradGradGradGradGradGradGradGradGrad
 Berny optimization.
 Search for a local minimum.
 Step number   3 out of a maximum of  100
 All quantities printed in internal units (Hartrees-Bohrs-Radians)
 Update second derivatives using D2CorN and points    1    2    3
 DE= -2.10D-07 DEPred=-4.55D-07 R= 4.61D-01
 Trust test= 4.61D-01 RLast= 2.96D-02 DXMaxT set to 4.14D-01
 ITU=  0  1  0
     Eigenvalues ---    0.00003   0.00006   0.00021   0.00033   0.00045
     Eigenvalues ---    0.00066   0.00107   0.00693   0.01061   0.02298
     Eigenvalues ---    0.02792   0.02903   0.03306   0.05126   0.05301
     Eigenvalues ---    0.06685   0.07094   0.07505   0.09452   0.10108
     Eigenvalues ---    0.10310   0.12109   0.12343   0.13221   0.15095
     Eigenvalues ---    0.19749   0.21224   0.23721   0.25168   0.27262
     Eigenvalues ---    0.35083   0.45605   0.45756   0.52994   0.56970
     Eigenvalues ---    0.61163   0.62844   0.63876   0.77382   1.50128
     Eigenvalues ---    1.52305   1.55071
 RFO step:  Lambda=-9.33395702D-08 EMin= 2.82352455D-05
 Quartic linear search produced a step of -0.33312.
 B after Tr=    -0.000025    0.000011   -0.000015
         Rot=    1.000000   -0.000006   -0.000001    0.000020 Ang=   0.00 deg.
 Variable       Old X    -DE/DX   Delta X   Delta X   Delta X     New X
                                 (Linear)    (Quad)   (Total)
    X1       -2.70743  -0.00001   0.00029   0.00003   0.00030  -2.70713
    Y1        0.06309   0.00001  -0.00012   0.00081   0.00083   0.06392
    Z1       -1.90162   0.00000   0.00097   0.00055   0.00151  -1.90011
    X2       -1.23130   0.00001   0.00009  -0.00046  -0.00047  -1.23177
    Y2       -1.75525  -0.00001   0.00035   0.00109   0.00153  -1.75372
    Z2       -2.83020   0.00000  -0.00038  -0.00068  -0.00110  -2.83130
    X3        1.48842  -0.00001   0.00018  -0.00070  -0.00063   1.48780
    Y3       -1.97980  -0.00001   0.00001  -0.00050  -0.00051  -1.98031
    Z3       -2.30187   0.00000  -0.00096  -0.00021  -0.00122  -2.30308
    X4        3.10893   0.00001   0.00011   0.00020   0.00028   3.10922
    Y4       -0.05194   0.00001   0.00016  -0.00120  -0.00112  -0.05306
    Z4       -2.38593   0.00000   0.00052   0.00127   0.00177  -2.38416
    X5        0.86661  -0.00003  -0.00026  -0.00012  -0.00033   0.86628
    Y5        1.87814   0.00000  -0.00070   0.00192   0.00115   1.87929
    Z5        4.00399   0.00001  -0.00042  -0.00097  -0.00138   4.00261
    X6       -1.44447   0.00003  -0.00032   0.00077   0.00049  -1.44398
    Y6        1.53974   0.00000   0.00040  -0.00200  -0.00159   1.53816
    Z6        4.91831  -0.00001  -0.00015  -0.00018  -0.00032   4.91799
    X7       -2.02909   0.00000   0.00054   0.00031   0.00089  -2.02820
    Y7        1.55006   0.00000  -0.00080  -0.00063  -0.00134   1.54872
    Z7       -0.67167   0.00000   0.00182   0.00204   0.00386  -0.66780
    X8       -4.70677   0.00000   0.00023   0.00020   0.00040  -4.70636
    Y8        0.19024   0.00000   0.00013   0.00201   0.00236   0.19260
    Z8       -2.29234   0.00000   0.00135   0.00020   0.00154  -2.29080
    X9       -1.98603   0.00000  -0.00018  -0.00070  -0.00104  -1.98707
    Y9       -3.23981   0.00000   0.00102   0.00254   0.00371  -3.23611
    Z9       -4.05440   0.00000  -0.00119  -0.00215  -0.00340  -4.05780
   X10        2.11353   0.00000   0.00033  -0.00172  -0.00157   2.11196
   Y10       -3.89724   0.00000  -0.00037  -0.00106  -0.00147  -3.89871
   Z10       -1.84811   0.00000  -0.00276  -0.00121  -0.00404  -1.85214
   X11        2.55907   0.00000  -0.00002   0.00118   0.00120   2.56028
   Y11        1.86152   0.00000   0.00055  -0.00067  -0.00018   1.86134
   Z11       -2.84688   0.00000   0.00230   0.00229   0.00459  -2.84229
   X12        5.10699   0.00000   0.00018   0.00001   0.00016   5.10714
   Y12       -0.25121   0.00000  -0.00008  -0.00233  -0.00257  -0.25379
   Z12       -2.01965   0.00000   0.00005   0.00158   0.00160  -2.01805
   X13        2.18097   0.00002  -0.00103  -0.00413  -0.00505   2.17592
   Y13        3.25868   0.00004   0.00185   0.00790   0.00962   3.26830
   Z13        4.73968   0.00002  -0.00311  -0.00508  -0.00817   4.73151
   X14        1.63012   0.00002   0.00055   0.00308   0.00364   1.63375
   Y14        0.79553  -0.00004  -0.00422  -0.00052  -0.00483   0.79070
   Z14        2.44195  -0.00004   0.00201   0.00243   0.00443   2.44638
   X15       -2.21108  -0.00002  -0.00115  -0.00245  -0.00351  -2.21459
   Y15        2.61514   0.00004   0.00397   0.00045   0.00444   2.61958
   Z15        6.47746   0.00004  -0.00259  -0.00359  -0.00616   6.47130
   X16       -2.75427  -0.00002   0.00045   0.00479   0.00522  -2.74905
   Y16        0.15382  -0.00004  -0.00215  -0.00795  -0.01004   0.14378
   Z16        4.18000  -0.00002   0.00256   0.00392   0.00647   4.18647
         Item               Value     Threshold  Converged?
 Maximum Force            0.000043     0.000015     NO 
 RMS     Force            0.000017     0.000010     NO 
 Maximum Displacement     0.010037     0.000060     NO 
 RMS     Displacement     0.003550     0.000040     NO 
 Predicted change in Energy=-8.197780D-08
 GradGradGradGradGradGradGradGradGradGradGradGradGradGradGradGradGradGrad

                          Input orientation:                          
 ---------------------------------------------------------------------
 Center     Atomic      Atomic             Coordinates (Angstroms)
 Number     Number       Type             X           Y           Z
 ---------------------------------------------------------------------
      1          6           0       -1.432551    0.033827   -1.005495
      2          6           0       -0.651824   -0.928028   -1.498257
      3          6           0        0.787308   -1.047934   -1.218738
      4          6           0        1.645327   -0.028077   -1.261642
      5          6           0        0.458415    0.994478    2.118091
      6          6           0       -0.764123    0.813958    2.602488
      7          1           0       -1.073279    0.819549   -0.353386
      8          1           0       -2.490501    0.101919   -1.212239
      9          1           0       -1.051510   -1.712475   -2.147296
     10          1           0        1.117601   -2.063107   -0.980112
     11          1           0        1.354840    0.984977   -1.504077
     12          1           0        2.702583   -0.134298   -1.067908
     13          1           0        1.151447    1.729508    2.503808
     14          1           0        0.864546    0.418421    1.294569
     15          1           0       -1.171908    1.386221    3.424464
     16          1           0       -1.454734    0.076085    2.215386
 ---------------------------------------------------------------------
                    Distance matrix (angstroms):
                    1          2          3          4          5
     1  C    0.000000
     2  C    1.333234   0.000000
     3  C    2.478599   1.470922   0.000000
     4  C    3.089139   2.478468   1.333471   0.000000
     5  C    3.775632   4.243423   3.926072   3.725181   0.000000
     6  C    3.751392   4.456819   4.524969   4.630980   1.327338
     7  H    1.082443   2.131286   2.774547   2.989016   2.912882
     8  H    1.080110   2.126812   3.473649   4.138166   4.536944
     9  H    2.120959   1.093780   2.164506   3.300683   5.272664
    10  H    3.301674   2.165120   1.093898   2.121108   4.402523
    11  H    2.987109   2.772423   2.129845   1.081405   3.731457
    12  H    4.139021   3.473796   2.127383   1.080096   4.057217
    13  H    4.676280   5.131356   4.658769   4.184691   1.081360
    14  H    3.273356   3.451403   2.910820   2.709833   1.083962
    15  H    4.639121   5.464378   5.596692   5.647712   2.125565
    16  H    3.221235   3.929892   4.252456   4.659501   2.124394
                    6          7          8          9         10
     6  C    0.000000
     7  H    2.972002   0.000000
     8  H    4.247296   1.805863   0.000000
     9  H    5.387569   3.103180   2.497408   0.000000
    10  H    4.965220   3.674567   4.214217   2.488033   0.000000
    11  H    4.624189   2.692066   3.956212   3.671580   3.101877
    12  H    5.137026   3.959482   5.200457   4.212949   2.498035
    13  H    2.125412   3.733763   5.451774   6.191367   5.150026
    14  H    2.125950   2.575232   4.200071   4.478662   3.375824
    15  H    1.081397   3.821386   4.988701   6.376591   6.044833
    16  H    1.082242   2.701265   3.580795   4.732285   4.626473
                   11         12         13         14         15
    11  H    0.000000
    12  H    1.805390   0.000000
    13  H    4.081524   4.317053   0.000000
    14  H    2.897204   3.043875   1.806522   0.000000
    15  H    5.553014   6.124138   2.522584   3.101651   0.000000
    16  H    4.749125   5.301656   3.099866   2.518761   1.805081
                   16
    16  H    0.000000
 Symmetry turned off by external request.
 Stoichiometry    C6H10
 Framework group  C1[X(C6H10)]
 Deg. of freedom    42
 Full point group                 C1      NOp   1
 Rotational constants (GHZ):           4.2979996           1.6473234           1.2923787
 Standard basis: VSTO-6G (5D, 7F)
    34 basis functions,   204 primitive gaussians,    34 cartesian basis functions
    17 alpha electrons       17 beta electrons
       nuclear repulsion energy       130.8828966121 Hartrees.
 Integral buffers will be    131072 words long.
 Regular integral format.
 Two-electron integral symmetry is turned off.
 Do NDO integrals.
 One-electron integrals computed using PRISM.
 NBasis=    34 RedAO= F EigKep=  0.00D+00  NBF=    34
 NBsUse=    34 1.00D-04 EigRej=  0.00D+00 NBFU=    34
 Initial guess from the checkpoint file:  "C:\Users\al6323\OneDrive - Imperial College London\Desktop\TSR202511112\Exercise 1\PM6\TS_guess_opt_TS(Berny)_IRC_Reactant.chk"
 B after Tr=    -0.000041    0.000036   -0.000082
         Rot=    1.000000   -0.000031    0.000009    0.000060 Ang=  -0.01 deg.
 Keep J ints in memory in canonical form, NReq=862294.
 Overlap will be assumed to be unity.
 Requested convergence on RMS density matrix=1.00D-08 within  32 cycles.
 Requested convergence on MAX density matrix=1.00D-06.
 Requested convergence on             energy=1.00D-06.
 No special actions if energy rises.
 SCF Done:  E(RPM6) =  0.705834040636E-01 A.U. after   10 cycles
            NFock=  9  Conv=0.57D-08     -V/T= 1.0014
 QCSCF skips out because SCF is already converged.
 Calling FoFJK, ICntrl=      2127 FMM=F ISym2X=0 I1Cent= 0 IOpClX= 0 NMat=1 NMatS=1 NMatT=0.
 -------------------------------------------------------------------
 Center     Atomic                   Forces (Hartrees/Bohr)
 Number     Number              X              Y              Z
 -------------------------------------------------------------------
      1        6          -0.000001392    0.000002942    0.000001665
      2        6           0.000002247   -0.000001994   -0.000001266
      3        6          -0.000000285    0.000000663   -0.000000858
      4        6          -0.000000969   -0.000001402   -0.000000003
      5        6           0.000015029    0.000008173    0.000000112
      6        6          -0.000014866   -0.000008993   -0.000000086
      7        1          -0.000000984   -0.000001745   -0.000001069
      8        1           0.000001110    0.000000862    0.000000754
      9        1           0.000001461    0.000002142    0.000001379
     10        1          -0.000000187    0.000000392   -0.000000391
     11        1           0.000000133   -0.000000105    0.000000151
     12        1          -0.000000822   -0.000000162   -0.000000309
     13        1          -0.000021799   -0.000021869   -0.000013862
     14        1           0.000002959    0.000005880    0.000008351
     15        1          -0.000003154   -0.000006195   -0.000008439
     16        1           0.000021520    0.000021410    0.000013871
 -------------------------------------------------------------------
 Cartesian Forces:  Max     0.000021869 RMS     0.000008078

 GradGradGradGradGradGradGradGradGradGradGradGradGradGradGradGradGradGrad
 Berny optimization.
 Search for a local minimum.
 Step number   4 out of a maximum of  100
 All quantities printed in internal units (Hartrees-Bohrs-Radians)
 Update second derivatives using D2CorN and points    1    2    3    4
 DE= -1.40D-07 DEPred=-8.20D-08 R= 1.71D+00
 Trust test= 1.71D+00 RLast= 2.46D-02 DXMaxT set to 4.14D-01
 ITU=  0  0  1  0
     Eigenvalues ---   -0.00004   0.00001   0.00020   0.00032   0.00037
     Eigenvalues ---    0.00066   0.00106   0.00693   0.01061   0.02298
     Eigenvalues ---    0.02792   0.02903   0.03306   0.05126   0.05301
     Eigenvalues ---    0.06686   0.07094   0.07505   0.09452   0.10108
     Eigenvalues ---    0.10310   0.12109   0.12343   0.13223   0.15095
     Eigenvalues ---    0.19749   0.21224   0.23721   0.25168   0.27266
     Eigenvalues ---    0.35083   0.45605   0.45756   0.52994   0.56970
     Eigenvalues ---    0.61163   0.62845   0.63876   0.77382   1.50128
     Eigenvalues ---    1.52305   1.55071
 RFO step:  Lambda=-4.41939531D-05 EMin=-4.41730915D-05
 I=     1 Eig=   -4.42D-05 Dot1= -5.74D-07
 I=     1 Stepn= -6.00D-01 RXN=   6.00D-01 EDone=F
 Mixed    1 eigenvectors in step.  Raw Step.Grad=  5.74D-07.
 RFO eigenvector is Hessian eigenvector with negative curvature.
 Taking step of  6.00D-01 in eigenvector direction(s).  Step.Grad=  2.66D-05.
 Quartic linear search produced a step of  0.45787.
 Maximum step size (   0.414) exceeded in Quadratic search.
    -- Step size scaled by   0.689
 B after Tr=     0.000646   -0.000522   -0.001737
         Rot=    1.000000    0.000339    0.000094   -0.000438 Ang=   0.06 deg.
 Variable       Old X    -DE/DX   Delta X   Delta X   Delta X     New X
                                 (Linear)    (Quad)   (Total)
    X1       -2.70713   0.00000   0.00014  -0.00402  -0.00288  -2.71001
    Y1        0.06392   0.00000   0.00038  -0.06069  -0.06449  -0.00057
    Z1       -1.90011   0.00000   0.00069   0.00409   0.00253  -1.89758
    X2       -1.23177   0.00000  -0.00021   0.01401   0.01653  -1.21524
    Y2       -1.75372   0.00000   0.00070  -0.01589  -0.01874  -1.77246
    Z2       -2.83130   0.00000  -0.00050  -0.05637  -0.05764  -2.88893
    X3        1.48780   0.00000  -0.00029   0.01600   0.01855   1.50635
    Y3       -1.98031   0.00000  -0.00023  -0.00762  -0.00866  -1.98896
    Z3       -2.30308   0.00000  -0.00056  -0.06389  -0.06455  -2.36763
    X4        3.10922   0.00000   0.00013  -0.00626  -0.00501   3.10420
    Y4       -0.05306   0.00000  -0.00051   0.01577   0.01586  -0.03720
    Z4       -2.38416   0.00000   0.00081   0.03184   0.03152  -2.35264
    X5        0.86628   0.00002  -0.00015  -0.00433  -0.00622   0.86006
    Y5        1.87929   0.00001   0.00053  -0.02431  -0.02083   1.85847
    Z5        4.00261   0.00000  -0.00063   0.01160   0.00813   4.01075
    X6       -1.44398  -0.00001   0.00022  -0.00814  -0.00962  -1.45361
    Y6        1.53816  -0.00001  -0.00073   0.08682   0.08766   1.62582
    Z6        4.91799   0.00000  -0.00015   0.04308   0.03982   4.95780
    X7       -2.02820   0.00000   0.00041  -0.01920  -0.01931  -2.04751
    Y7        1.54872   0.00000  -0.00061  -0.09357  -0.09691   1.45181
    Z7       -0.66780   0.00000   0.00177   0.05341   0.05207  -0.61573
    X8       -4.70636   0.00000   0.00018  -0.00526  -0.00411  -4.71047
    Y8        0.19260   0.00000   0.00108  -0.06803  -0.07315   0.11945
    Z8       -2.29080   0.00000   0.00071   0.00782   0.00583  -2.28497
    X9       -1.98707   0.00000  -0.00048   0.02758   0.03135  -1.95571
    Y9       -3.23611   0.00000   0.00170   0.01709   0.01373  -3.22238
    Z9       -4.05780   0.00000  -0.00155  -0.10609  -0.10757  -4.16537
   X10        2.11196   0.00000  -0.00072   0.03888   0.04262   2.15458
   Y10       -3.89871   0.00000  -0.00067  -0.02180  -0.02247  -3.92117
   Z10       -1.85214   0.00000  -0.00185  -0.15609  -0.15661  -2.00876
   X11        2.56028   0.00000   0.00055  -0.02750  -0.02745   2.53283
   Y11        1.86134   0.00000  -0.00008   0.03156   0.03133   1.89267
   Z11       -2.84229   0.00000   0.00210   0.12336   0.12292  -2.71937
   X12        5.10714   0.00000   0.00007  -0.00448  -0.00318   5.10396
   Y12       -0.25379   0.00000  -0.00118   0.02158   0.02300  -0.23079
   Z12       -2.01805   0.00000   0.00073   0.02555   0.02566  -1.99239
   X13        2.17592  -0.00002  -0.00231   0.06303   0.05767   2.23359
   Y13        3.26830  -0.00002   0.00440  -0.07157  -0.06254   3.20575
   Z13        4.73151  -0.00001  -0.00374  -0.02280  -0.03003   4.70148
   X14        1.63375   0.00000   0.00166  -0.06781  -0.06658   1.56717
   Y14        0.79070   0.00001  -0.00221  -0.07658  -0.07627   0.71443
   Z14        2.44638   0.00001   0.00203   0.01824   0.01835   2.46473
   X15       -2.21459   0.00000  -0.00161   0.05641   0.05181  -2.16278
   Y15        2.61958  -0.00001   0.00203   0.13929   0.14331   2.76289
   Z15        6.47130  -0.00001  -0.00282   0.03716   0.03033   6.50162
   X16       -2.74905   0.00002   0.00239  -0.07616  -0.07416  -2.82321
   Y16        0.14378   0.00002  -0.00460   0.13386   0.12916   0.27294
   Z16        4.18647   0.00001   0.00296   0.07874   0.07925   4.26572
         Item               Value     Threshold  Converged?
 Maximum Force            0.000022     0.000015     NO 
 RMS     Force            0.000008     0.000010     YES
 Maximum Displacement     0.156614     0.000060     NO 
 RMS     Displacement     0.059638     0.000040     NO 
 Predicted change in Energy=-3.577996D-06
 GradGradGradGradGradGradGradGradGradGradGradGradGradGradGradGradGradGrad

                          Input orientation:                          
 ---------------------------------------------------------------------
 Center     Atomic      Atomic             Coordinates (Angstroms)
 Number     Number       Type             X           Y           Z
 ---------------------------------------------------------------------
      1          6           0       -1.434074   -0.000299   -1.004156
      2          6           0       -0.643075   -0.937946   -1.528758
      3          6           0        0.797125   -1.052514   -1.252898
      4          6           0        1.642674   -0.019685   -1.244963
      5          6           0        0.455123    0.983457    2.122395
      6          6           0       -0.769216    0.860348    2.623557
      7          1           0       -1.083496    0.768264   -0.325832
      8          1           0       -2.492675    0.063210   -1.209156
      9          1           0       -1.034919   -1.705210   -2.204217
     10          1           0        1.140157   -2.074996   -1.062988
     11          1           0        1.340314    1.001558   -1.439030
     12          1           0        2.700898   -0.122127   -1.054329
     13          1           0        1.181963    1.696411    2.487917
     14          1           0        0.829311    0.378060    1.304277
     15          1           0       -1.144493    1.462059    3.440511
     16          1           0       -1.493979    0.144434    2.257324
 ---------------------------------------------------------------------
                    Distance matrix (angstroms):
                    1          2          3          4          5
     1  C    0.000000
     2  C    1.334191   0.000000
     3  C    2.479370   1.470850   0.000000
     4  C    3.086218   2.479595   1.334823   0.000000
     5  C    3.783141   4.269513   3.956608   3.708864   0.000000
     6  C    3.787222   4.526753   4.597757   4.642964   1.328655
     7  H    1.083383   2.133578   2.776945   2.982896   2.899564
     8  H    1.080137   2.127317   3.474123   4.136334   4.542642
     9  H    2.122779   1.094752   2.165042   3.306156   5.307422
    10  H    3.306734   2.165580   1.095082   2.123662   4.468789
    11  H    2.981620   2.775528   2.132818   1.082599   3.669828
    12  H    4.137071   3.474593   2.128240   1.080127   4.044429
    13  H    4.681564   5.138509   4.658152   4.134202   1.081761
    14  H    3.254985   3.453386   2.930311   2.705251   1.084361
    15  H    4.688008   5.541216   5.667543   5.649560   2.127266
    16  H    3.265239   4.028647   4.359300   4.704417   2.126303
                    6          7          8          9         10
     6  C    0.000000
     7  H    2.967516   0.000000
     8  H    4.277316   1.806418   0.000000
     9  H    5.473581   3.106246   2.498501   0.000000
    10  H    5.084542   3.684041   4.217908   2.483968   0.000000
    11  H    4.579811   2.677404   3.952865   3.681554   3.105906
    12  H    5.151097   3.955395   5.199185   4.217194   2.499937
    13  H    2.127087   3.729738   5.462477   6.204975   5.180172
    14  H    2.128001   2.543294   4.177567   4.486079   3.423164
    15  H    1.081806   3.830198   5.039225   6.473528   6.165379
    16  H    1.082563   2.688931   3.608389   4.851522   4.784246
                   11         12         13         14         15
    11  H    0.000000
    12  H    1.806060   0.000000
    13  H    3.991091   4.261661   0.000000
    14  H    2.859302   3.052221   1.806493   0.000000
    15  H    5.495112   6.123747   2.524827   3.103942   0.000000
    16  H    4.736128   5.351177   3.102011   2.522015   1.805052
                   16
    16  H    0.000000
 Symmetry turned off by external request.
 Stoichiometry    C6H10
 Framework group  C1[X(C6H10)]
 Deg. of freedom    42
 Full point group                 C1      NOp   1
 Rotational constants (GHZ):           4.3322097           1.6230324           1.2736902
 Standard basis: VSTO-6G (5D, 7F)
    34 basis functions,   204 primitive gaussians,    34 cartesian basis functions
    17 alpha electrons       17 beta electrons
       nuclear repulsion energy       130.6978201088 Hartrees.
 Integral buffers will be    131072 words long.
 Regular integral format.
 Two-electron integral symmetry is turned off.
 Do NDO integrals.
 One-electron integrals computed using PRISM.
 NBasis=    34 RedAO= F EigKep=  0.00D+00  NBF=    34
 NBsUse=    34 1.00D-04 EigRej=  0.00D+00 NBFU=    34
 Initial guess from the checkpoint file:  "C:\Users\al6323\OneDrive - Imperial College London\Desktop\TSR202511112\Exercise 1\PM6\TS_guess_opt_TS(Berny)_IRC_Reactant.chk"
 B after Tr=     0.001310   -0.001064   -0.004325
         Rot=    0.999999    0.000887    0.000181   -0.001294 Ang=   0.18 deg.
 Keep J ints in memory in canonical form, NReq=862294.
 Overlap will be assumed to be unity.
 Requested convergence on RMS density matrix=1.00D-08 within  32 cycles.
 Requested convergence on MAX density matrix=1.00D-06.
 Requested convergence on             energy=1.00D-06.
 No special actions if energy rises.
 SCF Done:  E(RPM6) =  0.705962787950E-01 A.U. after   12 cycles
            NFock= 11  Conv=0.85D-08     -V/T= 1.0014
 QCSCF skips out because SCF is already converged.
 Calling FoFJK, ICntrl=      2127 FMM=F ISym2X=0 I1Cent= 0 IOpClX= 0 NMat=1 NMatS=1 NMatT=0.
 -------------------------------------------------------------------
 Center     Atomic                   Forces (Hartrees/Bohr)
 Number     Number              X              Y              Z
 -------------------------------------------------------------------
      1        6           0.000711174   -0.000611198   -0.000305793
      2        6          -0.000578546    0.000636803    0.000337120
      3        6           0.000970755    0.001019366    0.000019577
      4        6          -0.001087279   -0.000982489   -0.000057457
      5        6          -0.001491986   -0.000140842    0.000615756
      6        6           0.001491096    0.000117181   -0.000606378
      7        1          -0.000078651   -0.000446747   -0.000365700
      8        1           0.000058509   -0.000002193    0.000002408
      9        1           0.000101986    0.000440268    0.000360059
     10        1          -0.000064989    0.000712951   -0.000090532
     11        1           0.000040945   -0.000732581    0.000095054
     12        1          -0.000084497   -0.000014865   -0.000015905
     13        1          -0.000284608   -0.000163216   -0.000028611
     14        1          -0.000188431    0.000095007    0.000229000
     15        1           0.000190343   -0.000096338   -0.000225521
     16        1           0.000294177    0.000168891    0.000036921
 -------------------------------------------------------------------
 Cartesian Forces:  Max     0.001491986 RMS     0.000527571

 GradGradGradGradGradGradGradGradGradGradGradGradGradGradGradGradGradGrad
 Berny optimization.
 Search for a local minimum.
 Step number   5 out of a maximum of  100
 All quantities printed in internal units (Hartrees-Bohrs-Radians)
 Update second derivatives using D2CorN and points    1    2    3    5    4

 ITU=  0  0  0  1  0
     Eigenvalues ---    0.00003   0.00018   0.00024   0.00030   0.00039
     Eigenvalues ---    0.00066   0.00106   0.00693   0.01061   0.02298
     Eigenvalues ---    0.02791   0.02903   0.03306   0.05126   0.05303
     Eigenvalues ---    0.06685   0.07093   0.07500   0.09444   0.10103
     Eigenvalues ---    0.10311   0.12106   0.12345   0.13224   0.15096
     Eigenvalues ---    0.19753   0.21225   0.23724   0.25171   0.27266
     Eigenvalues ---    0.35081   0.45608   0.45755   0.52985   0.56976
     Eigenvalues ---    0.61159   0.62865   0.63880   0.77380   1.50129
     Eigenvalues ---    1.52298   1.55062
 RFO step:  Lambda=-3.00438747D-07 EMin= 2.74067837D-05
 Quartic linear search produced a step of -0.96265.
 B after Tr=    -0.000115    0.000010   -0.000198
         Rot=    1.000000    0.000006   -0.000006    0.000085 Ang=   0.01 deg.
 Variable       Old X    -DE/DX   Delta X   Delta X   Delta X     New X
                                 (Linear)    (Quad)   (Total)
    X1       -2.71001   0.00071   0.00277  -0.00148   0.00116  -2.70885
    Y1       -0.00057  -0.00061   0.06208  -0.00050   0.06203   0.06146
    Z1       -1.89758  -0.00031  -0.00244   0.00113  -0.00148  -1.89906
    X2       -1.21524  -0.00058  -0.01592  -0.00180  -0.01816  -1.23340
    Y2       -1.77246   0.00064   0.01804   0.00475   0.02298  -1.74948
    Z2       -2.88893   0.00034   0.05548  -0.00948   0.04584  -2.84309
    X3        1.50635   0.00097  -0.01786  -0.00355  -0.02189   1.48446
    Y3       -1.98896   0.00102   0.00833  -0.00345   0.00462  -1.98435
    Z3       -2.36763   0.00002   0.06214  -0.00365   0.05829  -2.30934
    X4        3.10420  -0.00109   0.00483   0.00057   0.00525   3.10945
    Y4       -0.03720  -0.00098  -0.01527  -0.00650  -0.02231  -0.05951
    Z4       -2.35264  -0.00006  -0.03034   0.00908  -0.02150  -2.37414
    X5        0.86006  -0.00149   0.00599  -0.00015   0.00610   0.86615
    Y5        1.85847  -0.00014   0.02005   0.01133   0.03129   1.88976
    Z5        4.01075   0.00062  -0.00783  -0.00348  -0.01154   3.99921
    X6       -1.45361   0.00149   0.00926   0.00507   0.01454  -1.43907
    Y6        1.62582   0.00012  -0.08439  -0.00543  -0.08951   1.53631
    Z6        4.95780  -0.00061  -0.03833   0.00322  -0.03531   4.92250
    X7       -2.04751  -0.00008   0.01859  -0.00244   0.01628  -2.03123
    Y7        1.45181  -0.00045   0.09329  -0.01154   0.08210   1.53391
    Z7       -0.61573  -0.00037  -0.05012   0.01512  -0.03520  -0.65093
    X8       -4.71047   0.00006   0.00395  -0.00022   0.00362  -4.70685
    Y8        0.11945   0.00000   0.07042   0.00578   0.07698   0.19643
    Z8       -2.28497   0.00000  -0.00561  -0.00329  -0.00904  -2.29401
    X9       -1.95571   0.00010  -0.03018  -0.00051  -0.03141  -1.98712
    Y9       -3.22238   0.00044  -0.01321   0.01572   0.00280  -3.21958
    Z9       -4.16537   0.00036   0.10355  -0.02359   0.07982  -4.08555
   X10        2.15458  -0.00006  -0.04103  -0.00879  -0.05062   2.10396
   Y10       -3.92117   0.00071   0.02163  -0.00675   0.01451  -3.90666
   Z10       -2.00876  -0.00009   0.15077  -0.01085   0.13973  -1.86902
   X11        2.53283   0.00004   0.02643   0.00548   0.03207   2.56490
   Y11        1.89267  -0.00073  -0.03016  -0.00340  -0.03402   1.85865
   Z11       -2.71937   0.00010  -0.11833   0.01646  -0.10213  -2.82150
   X12        5.10396  -0.00008   0.00306  -0.00072   0.00216   5.10612
   Y12       -0.23079  -0.00001  -0.02214  -0.01219  -0.03521  -0.26600
   Z12       -1.99239  -0.00002  -0.02470   0.01299  -0.01197  -2.00436
   X13        2.23359  -0.00028  -0.05551  -0.01736  -0.07237   2.16122
   Y13        3.20575  -0.00016   0.06021   0.03858   0.09849   3.30424
   Z13        4.70148  -0.00003   0.02891  -0.02420   0.00444   4.70592
   X14        1.56717  -0.00019   0.06410   0.01241   0.07656   1.64373
   Y14        0.71443   0.00010   0.07342  -0.00085   0.07234   0.78677
   Z14        2.46473   0.00023  -0.01766   0.01127  -0.00662   2.45811
   X15       -2.16278   0.00019  -0.04987  -0.00747  -0.05694  -2.21971
   Y15        2.76289  -0.00010  -0.13796   0.00681  -0.13069   2.63221
   Z15        6.50162  -0.00023  -0.02919  -0.01153  -0.04092   6.46070
   X16       -2.82321   0.00029   0.07139   0.02230   0.09365  -2.72956
   Y16        0.27294   0.00017  -0.12434  -0.03259  -0.15641   0.11653
   Z16        4.26572   0.00004  -0.07629   0.02402  -0.05244   4.21329
         Item               Value     Threshold  Converged?
 Maximum Force            0.001492     0.000015     NO 
 RMS     Force            0.000528     0.000010     NO 
 Maximum Displacement     0.156407     0.000060     NO 
 RMS     Displacement     0.058509     0.000040     NO 
 Predicted change in Energy=-9.627564D-06
 GradGradGradGradGradGradGradGradGradGradGradGradGradGradGradGradGradGrad

                          Input orientation:                          
 ---------------------------------------------------------------------
 Center     Atomic      Atomic             Coordinates (Angstroms)
 Number     Number       Type             X           Y           Z
 ---------------------------------------------------------------------
      1          6           0       -1.433461    0.032525   -1.004937
      2          6           0       -0.652685   -0.925787   -1.504500
      3          6           0        0.785542   -1.050071   -1.222050
      4          6           0        1.645450   -0.031490   -1.256339
      5          6           0        0.458349    1.000015    2.116289
      6          6           0       -0.761522    0.812983    2.604873
      7          1           0       -1.074881    0.811712   -0.344458
      8          1           0       -2.490759    0.103947   -1.213939
      9          1           0       -1.051539   -1.703727   -2.161979
     10          1           0        1.113367   -2.067316   -0.989045
     11          1           0        1.357287    0.983554   -1.493072
     12          1           0        2.702044   -0.140759   -1.060661
     13          1           0        1.143667    1.748528    2.490267
     14          1           0        0.869823    0.416339    1.300775
     15          1           0       -1.174621    1.392904    3.418857
     16          1           0       -1.444422    0.061667    2.229575
 ---------------------------------------------------------------------
                    Distance matrix (angstroms):
                    1          2          3          4          5
     1  C    0.000000
     2  C    1.333243   0.000000
     3  C    2.478534   1.470959   0.000000
     4  C    3.089821   2.478462   1.333464   0.000000
     5  C    3.775849   4.248909   3.931211   3.721268   0.000000
     6  C    3.753844   4.463420   4.528766   4.627700   1.327321
     7  H    1.082563   2.131396   2.774451   2.990437   2.905431
     8  H    1.080122   2.126804   3.473611   4.138643   4.537686
     9  H    2.121127   1.093870   2.164624   3.300046   5.281435
    10  H    3.300897   2.165115   1.093868   2.121119   4.413691
    11  H    2.988479   2.772309   2.129784   1.081386   3.719658
    12  H    4.139509   3.473826   2.127410   1.080102   4.053214
    13  H    4.669336   5.131959   4.662800   4.178194   1.081569
    14  H    3.281575   3.462499   2.919265   2.709424   1.083998
    15  H    4.635469   5.467009   5.598963   5.642619   2.125473
[...]

 Dipole polarizability, Alpha (input orientation).
 (esu units = cm**3 , SI units = C**2 m**2 J**-1)
 Alpha(0;0):
               (au)            (10**-24 esu)      (10**-40 SI)
   iso        0.461466D+02      0.683822D+01      0.760854D+01
   aniso      0.480136D+02      0.711489D+01      0.791638D+01
   xx         0.709670D+02      0.105162D+02      0.117009D+02
   yx         0.367135D+01      0.544039D+00      0.605324D+00
   yy         0.432124D+02      0.640342D+01      0.712477D+01
   zx        -0.105471D+02     -0.156291D+01     -0.173898D+01
   zy         0.958541D+01      0.142041D+01      0.158042D+01
   zz         0.242602D+02      0.359500D+01      0.399997D+01

 First dipole hyperpolarizability, Beta (input orientation).
 ||, _|_  parallel and perpendicular components, (z) with respect to z axis,
 vector components x,y,z.  Values do not include the 1/n! factor of 1/2.
 (esu units = statvolt**-1 cm**4 , SI units = C**3 m**3 J**-2)
 Beta(0;0,0):
               (au)            (10**-30 esu)      (10**-50 SI)
   || (z)     0.490254D+00      0.423541D-02      0.157193D-02
   _|_(z)     0.163418D+00      0.141180D-02      0.523977D-03
   x          0.977727D+01      0.844680D-01      0.313495D-01
   y         -0.960103D+01     -0.829454D-01     -0.307844D-01
   z          0.245127D+01      0.211771D-01      0.785966D-02
   ||         0.278412D+01      0.240527D-01      0.892690D-02
   xxx        0.606202D+01      0.523711D-01      0.194370D-01
   xxy        0.560706D+00      0.484406D-02      0.179783D-02
   yxy       -0.326949D+01     -0.282458D-01     -0.104832D-01
   yyy       -0.368572D+01     -0.318418D-01     -0.118178D-01
   xxz       -0.143733D-01     -0.124174D-03     -0.460861D-04
   yxz        0.239080D+01      0.206547D-01      0.766577D-02
   yyz       -0.345697D+00     -0.298655D-02     -0.110843D-02
   zxz        0.466558D+00      0.403069D-02      0.149595D-02
   zyz       -0.753257D-01     -0.650755D-03     -0.241521D-03
   zzz        0.117716D+01      0.101698D-01      0.377440D-02

 ----------------------------------------------------------------------

 Dipole orientation:
     6         -2.53215766         -1.90426946          0.95438737
     6         -0.87127644         -1.98229621          2.84724345
     6          1.79755883         -1.24128603          2.61341923
     6          3.30122202         -1.95102836          0.71999676
     6          0.40055163          2.93617108         -3.38988723
     6         -1.95209999          3.79701979         -3.26505637
     1         -2.05905981         -1.28914368         -0.93831208
     1         -4.49159636         -2.43676266          1.16209043
     1         -1.42088793         -2.59759889          4.74237057
     1          2.49183959         -0.05571477          4.15792419
     1          2.68243163         -3.13717455         -0.82479118
     1          5.26594218         -1.41399585          0.58803900
     1          1.55344976          3.04150362         -5.07368320
     1          1.36375421          2.05546039         -1.81119549
     1         -2.91747496          4.67779547         -4.83616123
     1         -3.10012848          3.69217601         -1.57600678

 Electric dipole moment (dipole orientation):
 (Debye = 10**-18 statcoulomb cm , SI units = C m)
                  (au)            (Debye)         (10**-30 SI)
   Tot        0.675087D-01      0.171590D+00      0.572363D+00
   x          0.000000D+00      0.000000D+00      0.000000D+00
   y          0.000000D+00      0.000000D+00      0.000000D+00
   z          0.675087D-01      0.171590D+00      0.572363D+00

 Dipole polarizability, Alpha (dipole orientation).
 (esu units = cm**3 , SI units = C**2 m**2 J**-1)
 Alpha(0;0):
               (au)            (10**-24 esu)      (10**-40 SI)
   iso        0.461466D+02      0.683822D+01      0.760854D+01
   aniso      0.480136D+02      0.711489D+01      0.791638D+01
   xx         0.720338D+02      0.106743D+02      0.118768D+02
   yx        -0.807812D+01     -0.119705D+01     -0.133190D+01
   yy         0.191644D+02      0.283986D+01      0.315978D+01
   zx        -0.131077D+01     -0.194236D+00     -0.216117D+00
   zy         0.132993D+01      0.197075D+00      0.219275D+00
   zz         0.472415D+02      0.700047D+01      0.778908D+01

 First dipole hyperpolarizability, Beta (dipole orientation).
 ||, _|_  parallel and perpendicular components, (z) with respect to z axis,
 vector components x,y,z.  Values do not include the 1/n! factor of 1/2.
 (esu units = statvolt**-1 cm**4 , SI units = C**3 m**3 J**-2)
 Beta(0;0,0):
               (au)            (10**-30 esu)      (10**-50 SI)
   || (z)     0.138654D+01      0.119786D-01      0.444576D-02
   _|_(z)     0.462181D+00      0.399288D-02      0.148192D-02
   x          0.100579D+02      0.868928D-01      0.322494D-01
   y          0.667523D+01      0.576688D-01      0.214032D-01
   z          0.693271D+01      0.598932D-01      0.222288D-01
   ||         0.278412D+01      0.240527D-01      0.892690D-02
   xxx        0.592193D+01      0.511609D-01      0.189879D-01
   xxy       -0.188099D+00     -0.162503D-02     -0.603113D-03
   yxy       -0.198508D+01     -0.171496D-01     -0.636490D-02
   yyy        0.731870D+00      0.632279D-02      0.234664D-02
   xxz       -0.828569D+00     -0.715819D-02     -0.265669D-02
   yxz       -0.287946D+01     -0.248763D-01     -0.923259D-02
   yyz       -0.192160D+00     -0.166012D-02     -0.616136D-03
   zxz       -0.584199D+00     -0.504702D-02     -0.187315D-02
   zyz        0.168131D+01      0.145252D-01      0.539087D-02
   zzz        0.333163D+01      0.287827D-01      0.106824D-01

 ----------------------------------------------------------------------
 Unable to Open any file for archive entry.
 1|1|UNPC-SKCH-134-020|Freq|RPM6|ZDO|C6H10|AL6323|12-Nov-2025|0||#N Geo
 m=AllCheck Guess=TCheck SCRF=Check GenChk RPM6/ZDO Freq||TS (Berny)_IR
 C||0,1|C,-1.4344655791,0.0225570216,-1.0038971557|C,-0.6504776022,-0.9
 255352346,-1.517677459|C,0.7873218186,-1.0517135854,-1.2340603958|C,1.
 6449415237,-0.0307186177,-1.2474336|C,0.4567612296,0.9980606712,2.1147
 642918|C,-0.7611161416,0.8249328368,2.6133949251|H,-1.0791500338,0.791
 1959554,-0.3295620027|H,-2.4914075125,0.0953191761,-1.214143041|H,-1.0
 461781966,-1.6929940164,-2.1890636851|H,1.1169936565,-2.0723494183,-1.
 01909761|H,1.354994054,0.9878925488,-1.4661133243|H,2.7012896556,-0.14
 12063966,-1.0512100863|H,1.1447300307,1.7541682626,2.4672440034|H,0.86
 38510976,0.39443871,1.311752515|H,-1.1696989515,1.4249411242,3.4149391
 122|H,-1.4467508789,0.0660351925,2.2598179423||Version=EM64W-G16RevC.0
 1|HF=0.0705831|RMSD=4.129e-010|RMSF=1.107e-007|ZeroPoint=0.1256804|The
 rmal=0.1358655|ETot=0.2064486|HTot=0.2073928|GTot=0.1561232|Dipole=-0.
 0059128,-0.0616355,-0.0268984|DipoleDeriv=-0.4775634,-0.0083477,-0.024
 9478,0.0465551,-0.3565006,0.0111181,0.0103542,-0.0132269,-0.4184511,0.
 042954,-0.0268893,0.0015833,-0.002503,-0.1943026,-0.031943,0.0058791,-
 0.0020574,-0.1403781,0.0758657,0.0116343,0.0085703,-0.002641,-0.179164
 6,-0.0059673,0.0152307,-0.0293437,-0.136062,-0.5129831,0.0217818,0.004
 0127,-0.0458597,-0.3726311,0.0041833,0.016887,0.0060757,-0.4398632,-0.
 2919535,0.0051752,-0.0144252,0.0033179,-0.3309731,0.0019306,-0.0157507
 ,-0.0227907,-0.3696244,-0.3174399,0.0018155,-0.0128891,0.0123395,-0.33
 48619,0.0061705,0.0047608,-0.0073831,-0.3629181,0.0711535,0.044198,0.0
 425816,-0.0453711,0.2078872,0.030797,-0.0486657,0.043074,0.2395144,0.2
 854716,-0.0382151,-0.0197184,0.0138751,0.1376095,-0.0299821,0.0387436,
 -0.0359822,0.1507067,0.0706935,0.0618575,0.0173669,0.0258245,0.1867691
 ,0.0311165,0.0045364,0.0635907,0.1954233,0.0646627,-0.0522599,-0.01577
 74,-0.0193672,0.2323917,-0.0048512,-0.0114257,-0.0395081,0.1536479,0.0
 870546,-0.0399795,0.0015455,0.0732178,0.2274342,-0.0201026,-0.0410393,
 -0.0174932,0.203803,0.2934576,0.0297196,-0.0090574,-0.0423612,0.114150
 7,0.0100275,0.0117238,0.0199927,0.1847305,0.1724748,0.0255206,0.022930
 9,0.0667855,0.1781892,-0.0298817,0.0621104,0.0033719,0.1396068,0.12105
 4,-0.0315778,-0.0092526,-0.0757609,0.1527762,0.0374694,-0.0417026,0.02
 38659,0.2416078,0.1420136,-0.0279821,-0.0100555,-0.0698858,0.1544856,0
 .0210124,-0.0555193,0.0044979,0.2085743,0.1730724,0.0235451,0.017528,0
 .0618323,0.1767153,-0.0311174,0.0438849,0.0033205,0.1496829|Polar=70.9
 669984,3.6713538,43.2124489,-10.5470699,9.5854118,24.2602407|HyperPola
 r=6.0620188,0.5607058,-3.2694856,-3.6857221,-0.0143733,2.3908013,-0.34
 56968,0.4665576,-0.0753257,1.1771606|PG=C01 [X(C6H10)]|NImag=0||0.5681
 1233,-0.22221169,0.54208517,-0.05800837,0.25644116,0.30835906,-0.25107
 088,0.22056765,0.12055546,0.66073330,0.22992297,-0.34213746,-0.1574722
 0,-0.22056760,0.56881623,0.12566393,-0.15915037,-0.14499822,-0.0366007
 8,0.24755609,0.31558803,-0.04405323,0.02671828,0.00409045,-0.25534916,
 0.01146946,-0.04430357,0.69292960,0.02703634,-0.00145730,-0.00039469,0
 .02488455,-0.06298823,0.00817058,0.21199991,0.68911048,0.00817655,0.00
 009432,0.00723815,-0.04109623,0.00216579,-0.07522130,0.06169605,-0.036
 47666,0.16356056,-0.00267226,-0.00184011,0.00007974,-0.04777315,-0.024
 37035,-0.00507237,-0.28757975,-0.27155574,0.00467790,0.60229973,0.0016
 4707,-0.00162254,-0.00022064,-0.02213653,0.00396674,-0.00296382,-0.260
 85494,-0.39297478,0.00860094,0.22867066,0.67210329,0.00083553,-0.00076
 179,0.00023801,-0.00831866,-0.00217693,0.00578545,0.00483401,0.0073303
 9,-0.05699181,0.04311658,-0.04873901,0.14447465,0.00003631,-0.00022709
 ,-0.00056946,-0.00014237,-0.00005678,-0.00005412,-0.00010126,0.0000536
 5,0.00003810,0.00027735,0.00014481,0.00059608,0.77980043,-0.00006430,0
 .00033571,-0.00018995,0.00002560,0.00002936,-0.00002914,0.00008888,0.0
 0002621,-0.00028626,0.00006376,0.00024952,-0.00047906,0.12474503,0.304
 78039,-0.00059021,-0.00025969,-0.00052982,-0.00002482,-0.00009014,-0.0
 0004350,0.00009940,-0.00020524,-0.00027586,0.00042354,-0.00042013,-0.0
 0109361,-0.23404274,0.09896805,0.35480953,0.00034304,-0.00001572,-0.00
 030368,-0.00003449,-0.00005417,-0.00001568,-0.00008556,0.00002291,-0.0
 0001645,0.00011445,0.00011406,0.00023626,-0.55178386,-0.07210851,0.200
 86183,0.77942196,-0.00006441,0.00035054,-0.00015187,0.00003142,0.00003
 299,-0.00002579,0.00002668,0.00001988,-0.00009542,0.00004217,0.0001185
 3,-0.00011792,-0.07180607,-0.07513913,0.02176586,0.12410074,0.30498130
 ,-0.00009295,-0.00021715,-0.00089401,-0.00011130,-0.00013285,-0.000068
 45,-0.00006002,-0.00004762,-0.00007545,0.00022513,0.00000282,-0.000137
 82,0.20130186,0.02193939,-0.14564370,-0.23496311,0.09923518,0.35525601
 ,-0.05719354,-0.04690941,-0.03944267,0.00695932,0.01384949,0.01038307,
 -0.00001275,0.00023743,0.00116439,-0.00029544,-0.00025356,-0.00027964,
 0.00004485,-0.00016369,0.00023576,-0.00018909,0.00003893,0.00000989,0.
 06453947,-0.04534828,-0.13206011,-0.07903856,0.00230235,-0.02594001,-0
 .02428899,-0.00004408,-0.00204111,0.00196234,-0.00046293,-0.00029459,-
 0.00026337,0.00019764,-0.00033573,0.00020943,0.00006003,-0.00029558,0.
 00018962,0.04489457,0.15605087,-0.03779724,-0.07958445,-0.11290456,0.0
 0071640,-0.02161140,-0.00930848,0.00161057,0.00216665,-0.00250033,0.00
 022593,-0.00033777,-0.00031857,0.00024181,-0.00014589,0.00000196,0.000
 15226,-0.00016097,0.00027490,0.04463916,0.11205723,0.11955130,-0.21742
 134,0.01113225,-0.03575026,-0.03235727,0.01431981,0.00158321,-0.000688
 49,0.00228074,-0.00088398,0.00070078,0.00019147,0.00015444,-0.00005171
 ,0.00001364,0.00014366,-0.00011995,0.00002194,0.00004528,-0.01252859,-
 0.00391556,-0.00827042,0.26251285,0.00836473,-0.03770486,0.00516553,0.
 02748330,-0.00481439,-0.00095988,0.00196928,0.00199622,-0.00524146,0.0
 0063268,-0.00011993,0.00028062,-0.00004343,-0.00006895,-0.00005239,0.0
 0000314,-0.00009893,-0.00004194,-0.01410215,0.00255405,-0.00801554,-0.
 02413979,0.03935189,-0.03772983,0.00556170,-0.04682308,0.01099645,-0.0
 0304344,0.00584956,-0.00076888,-0.00547462,0.00527804,-0.00089912,0.00
 031786,-0.00026457,0.00005397,0.00006892,-0.00001121,0.00010566,0.0000
 4215,0.00011070,-0.01595411,-0.00553583,0.00028868,0.04209476,0.006714
 60,0.03797329,0.00620549,0.01294475,0.00954156,-0.05707474,-0.04879845
 ,-0.04140971,-0.02567363,-0.01721291,-0.02116671,-0.00214786,0.0007471
 2,-0.00028676,0.00004315,-0.00002569,0.00004013,0.00001305,-0.00002469
 ,0.00006392,-0.00073457,0.00219554,-0.00091558,0.00034537,0.00018244,0
 .00124768,0.07999752,0.00107117,-0.02695812,-0.02477812,-0.04574291,-0
 .12712617,-0.07357208,-0.00908555,0.00178898,-0.00578683,0.00126156,0.
 00050315,-0.00017261,0.00001156,-0.00001439,0.00006957,0.00000112,-0.0
 0002046,0.00005659,0.00221780,0.00156434,-0.00503028,0.00012652,-0.001
 41823,0.00165483,0.04999174,0.15103171,0.00103603,-0.02270643,-0.00989
 259,-0.04027483,-0.07276396,-0.10776289,-0.01268850,-0.00842123,-0.001
 95042,-0.00080634,-0.00018750,-0.00026382,0.00004837,0.00005671,0.0000
 8829,0.00002657,0.00004992,0.00011125,-0.00081294,-0.00521386,0.005130
 32,0.00114234,0.00175397,-0.00208492,0.05281535,0.10757463,0.11647365,
 -0.00225155,-0.00031573,-0.00056334,-0.02302660,0.02658488,-0.00944562
 ,-0.04967846,0.05383244,-0.01071415,0.00479435,-0.01919389,0.00262577,
 -0.00000714,-0.00000305,-0.00008179,0.00001137,-0.00002434,-0.00003067
 ,0.00010151,0.00013585,-0.00043976,-0.00040069,-0.00035507,0.00093847,
 -0.00062271,0.00031206,-0.00031985,0.07181014,-0.00052347,0.00023438,0
 .00046598,0.01532420,-0.00786223,0.00454143,0.05058799,-0.19209265,0.0
 3158934,-0.00460467,-0.04147491,0.00669398,-0.00003467,-0.00000072,0.0
 0018842,-0.00003055,-0.00001368,0.00009049,0.00002826,-0.00011333,-0.0
 0001280,0.00016122,0.00009281,-0.00006087,-0.00002900,0.00059324,0.000
 05356,-0.05864430,0.24239044,-0.00124338,0.00053593,0.00010172,-0.0057
 5566,0.00666340,0.00523895,-0.01120359,0.03081322,-0.05033142,0.000744
 77,0.00491667,0.00607232,-0.00001621,0.00013453,0.00001123,-0.00003555
 ,0.00007958,0.00001823,0.00009938,-0.00013059,0.00020045,-0.00011663,0
 .00016868,-0.00003790,-0.00039814,0.00018678,0.00020604,0.01856366,-0.
 04388699,0.03322361,-0.00023210,0.00031000,-0.00011459,-0.00014463,-0.
 00075953,0.00073225,0.00554340,-0.02031721,0.00305014,-0.05037229,0.05
 102559,-0.01001236,-0.00006066,0.00005557,-0.00012708,0.00001268,0.000
 02117,-0.00004379,-0.00057582,-0.00014412,0.00023154,0.00005717,0.0000
 4189,0.00008182,0.00009251,-0.00009574,0.00007211,-0.00101762,-0.00160
 350,-0.00148479,0.05744746,0.00023450,-0.00050951,0.00008449,-0.000697
 13,-0.00034127,-0.00085336,-0.00547387,-0.04005637,0.00667118,0.048825
 16,-0.20250082,0.03488055,-0.00004440,-0.00024598,0.00004502,-0.000074
 07,-0.00009821,-0.00006138,0.00009238,0.00045178,0.00019116,-0.0002602
 8,-0.00007012,-0.00002590,0.00006833,-0.00010216,-0.00003341,-0.001552
 76,-0.00171476,0.00150126,-0.04913848,0.25051732,0.00048790,0.00013445
 ,-0.00005481,0.00124809,-0.00109937,-0.00419654,-0.00023697,0.00452866
 ,0.00612292,-0.00931534,0.03572960,-0.05039204,-0.00007606,0.00001409,
 0.00025502,-0.00010052,0.00004101,0.00008782,0.00029109,0.00006549,0.0
 0000022,0.00001142,-0.00023571,0.00021876,-0.00045964,-0.00011757,0.00
 018939,-0.00156324,0.00132684,0.00870390,0.01408582,-0.04622539,0.0329
 7739,0.00062964,-0.00021788,-0.00002151,-0.00085912,-0.00163908,-0.001
 53005,-0.03546473,-0.01125884,-0.00499522,-0.21679300,0.02010572,-0.03
 288064,-0.00011203,-0.00007326,-0.00016262,-0.00004302,-0.00005414,-0.
 00011787,0.00007022,0.00020224,0.00016075,-0.00022278,-0.00007879,-0.0
 0002791,-0.00039785,-0.00005307,-0.00017500,0.00028238,-0.00069796,0.0
 0081075,-0.01083216,0.00793583,-0.00457530,0.26361097,-0.00016127,0.00
 010871,-0.00007583,-0.00141215,-0.00153332,0.00152705,-0.02720185,-0.0
 0114261,-0.00345755,0.02327779,-0.03752638,0.00320581,0.00000075,-0.00
 006972,0.00004451,-0.00000546,-0.00002029,0.00002522,-0.00008758,-0.00
 012306,0.00004487,0.00010554,0.00015015,-0.00012684,-0.00010559,0.0001
 1956,-0.00007205,-0.00079900,-0.00004283,-0.00074243,0.02069530,-0.005
 68735,0.00585174,-0.01431940,0.04565226,-0.00110237,-0.00006758,-0.000
 46168,-0.00134943,0.00178216,0.00905603,-0.00283609,-0.00186979,0.0052
 2409,-0.03323061,0.00294694,-0.04753576,-0.00016468,0.00005941,0.00012
 379,-0.00009891,0.00002386,0.00003671,0.00004173,-0.00014942,0.0002723
 9,0.00003082,0.00041232,-0.00037090,0.00100710,0.00006392,-0.00006260,
 0.00089386,-0.00065785,-0.00337928,-0.00665355,0.00368863,0.00668605,0
 .04313688,-0.00613624,0.03066064,0.00001009,0.00006317,0.00017265,0.00
 003766,0.00002830,0.00002765,0.00001165,0.00000872,0.00005043,-0.00017
 388,-0.00004008,0.00001421,-0.11082690,-0.08034223,-0.04058932,-0.0338
 6507,-0.02620485,-0.00328761,-0.00006180,-0.00006710,-0.00016853,0.000
 00539,0.00001193,-0.00002432,-0.00001452,-0.00001235,-0.00002835,0.000
 01288,-0.00001595,-0.00001411,0.00004508,0.00004332,-0.00001444,0.0000
 8732,0.00001668,0.00003222,0.14119293,-0.00003823,-0.00007589,0.000078
 95,-0.00000370,-0.00000409,0.00000995,-0.00000041,-0.00001947,0.000028
 56,0.00000112,-0.00009869,0.00006611,-0.08261628,-0.13245579,-0.040639
 46,-0.01518771,-0.00331884,-0.00082554,0.00004181,0.00006286,-0.000044
 88,0.00000946,0.00001671,-0.00003450,0.00000581,0.00000657,-0.00001772
 ,-0.00000289,0.00000937,-0.00003350,-0.00001196,0.00007690,-0.00001028
 ,0.00001643,0.00002246,-0.00002893,0.10807773,0.14325826,0.00002698,0.
 00007870,0.00007846,0.00000722,0.00003991,0.00000935,0.00001051,0.0000
 3374,-0.00003256,-0.00004799,0.00012375,0.00009914,-0.04275285,-0.0418
 6480,-0.06040614,0.00725961,0.00510716,0.00721979,-0.00004150,-0.00008
 276,-0.00008858,-0.00001764,-0.00000663,-0.00001330,-0.00001678,-0.000
 02196,-0.00001870,0.00001846,-0.00003882,0.00001932,0.00002600,-0.0000
 6241,-0.00006850,0.00002204,-0.00003418,-0.00003152,0.03958189,0.05671
 454,0.05605236,-0.00007461,0.00002599,0.00028523,0.00010890,0.00004259
 ,0.00005294,0.00013375,-0.00000233,0.00006414,-0.00034539,-0.00012832,
 -0.00043952,-0.06130178,0.03941467,0.04769913,-0.02180671,0.01449640,0
 .02927709,-0.00035439,0.00001188,-0.00054712,0.00003486,0.00005036,-0.
 00003390,-0.00003296,-0.00000405,-0.00003820,0.00000667,0.00005509,-0.
 00000468,0.00005043,0.00002277,0.00013915,0.00004044,0.00000062,0.0002
 2573,0.00580069,-0.00866969,-0.00678168,0.07999470,0.00017163,-0.00023
 240,-0.00001352,-0.00002979,-0.00005232,0.00001600,-0.00018881,-0.0001
 2498,0.00017029,0.00006243,-0.00019666,0.00026017,0.04137910,-0.098698
 81,-0.07560235,0.00371584,0.00498403,-0.00326894,0.00009700,0.00026344
 ,0.00023165,-0.00005204,0.00003720,-0.00001102,0.00003145,0.00000320,-
 0.00003227,0.00001042,-0.00004727,-0.00014202,-0.00004136,0.00019565,-
 0.00000445,0.00010462,0.00007609,-0.00007051,0.00015191,-0.01030053,-0
 .01831982,-0.04380300,0.10124302,0.00042661,-0.00007249,-0.00010287,-0
 .00007471,0.00003954,0.00000926,-0.00032629,-0.00018690,-0.00011779,0.
 00011828,0.00024931,0.00028873,0.04929579,-0.07420096,-0.14159103,0.01
 891523,-0.00902642,-0.01289605,-0.00036203,0.00016008,0.00006223,-0.00
 014896,0.00000911,0.00003472,-0.00000039,-0.00006461,-0.00004961,0.000
 08759,-0.00022363,-0.00003675,0.00012476,0.00013757,-0.00047025,0.0002
 3754,-0.00002380,-0.00021734,0.00165833,-0.01350542,-0.00525832,-0.072
 66972,0.09846218,0.15795487,-0.00006631,0.00003501,-0.00004221,-0.0000
 0222,0.00000231,-0.00000653,0.00001115,0.00000393,-0.00001166,-0.00001
 352,0.00000180,-0.00003098,-0.02193259,0.01455998,0.02943245,-0.061930
 63,0.03961314,0.04831880,0.00003819,-0.00002410,0.00002790,0.00003330,
 -0.00001967,-0.00000246,0.00000089,-0.00000046,0.00000942,-0.00000381,
 0.00000174,0.00001673,0.00000330,0.00000122,0.00001634,0.00000249,0.00
 000027,0.