 Default is to use a total of   8 processors:
                                8 via shared-memory
                                1 via Linda
 Entering Link 1 = C:\G16W\l1.exe PID=     20244.
  
 Copyright (c) 1988-2019, Gaussian, Inc.  All Rights Reserved.
  
 This is part of the Gaussian(R) 16 program.  It is based on
 the Gaussian(R) 09 system (copyright 2009, Gaussian, Inc.),
 the Gaussian(R) 03 system (copyright 2003, Gaussian, Inc.),
 the Gaussian(R) 98 system (copyright 1998, Gaussian, Inc.),
 the Gaussian(R) 94 system (copyright 1995, Gaussian, Inc.),
 the Gaussian 92(TM) system (copyright 1992, Gaussian, Inc.),
 the Gaussian 90(TM) system (copyright 1990, Gaussian, Inc.),
 the Gaussian 88(TM) system (copyright 1988, Gaussian, Inc.),
 the Gaussian 86(TM) system (copyright 1986, Carnegie Mellon
 University), and the Gaussian 82(TM) system (copyright 1983,
 Carnegie Mellon University). Gaussian is a federally registered
 trademark of Gaussian, Inc.
  
 This software contains proprietary and confidential information,
 including trade secrets, belonging to Gaussian, Inc.
  
 This software is provided under written license and may be
 used, copied, transmitted, or stored only in accord with that
 written license.
  
 The following legend is applicable only to US Government
 contracts under FAR:
  
                    RESTRICTED RIGHTS LEGEND
  
 Use, reproduction and disclosure by the US Government is
 subject to restrictions as set forth in subparagraphs (a)
 and (c) of the Commercial Computer Software - Restricted
 Rights clause in FAR 52.227-19.
  
 Gaussian, Inc.
 340 Quinnipiac St., Bldg. 40, Wallingford CT 06492
  
  
 ---------------------------------------------------------------
 Warning -- This program may not be used in any manner that
 competes with the business of Gaussian, Inc. or will provide
 assistance to any competitor of Gaussian, Inc.  The licensee
 of this program is prohibited from giving any competitor of
 Gaussian, Inc. access to this program.  By using this program,
 the user acknowledges that Gaussian, Inc. is engaged in the
 business of creating and licensing software in the field of
 computational chemistry and represents and warrants to the
 licensee that it is not a competitor of Gaussian, Inc. and that
 it will not use this program in any manner prohibited above.
 ---------------------------------------------------------------
  

 Cite this work as:
 Gaussian 16, Revision C.01,
 M. J. Frisch, G. W. Trucks, H. B. Schlegel, G. E. Scuseria, 
 M. A. Robb, J. R. Cheeseman, G. Scalmani, V. Barone, 
 G. A. Petersson, H. Nakatsuji, X. Li, M. Caricato, A. V. Marenich, 
 J. Bloino, B. G. Janesko, R. Gomperts, B. Mennucci, H. P. Hratchian, 
 J. V. Ortiz, A. F. Izmaylov, J. L. Sonnenberg, D. Williams-Young, 
 F. Ding, F. Lipparini, F. Egidi, J. Goings, B. Peng, A. Petrone, 
 T. Henderson, D. Ranasinghe, V. G. Zakrzewski, J. Gao, N. Rega, 
 G. Zheng, W. Liang, M. Hada, M. Ehara, K. Toyota, R. Fukuda, 
 J. Hasegawa, M. Ishida, T. Nakajima, Y. Honda, O. Kitao, H. Nakai, 
 T. Vreven, K. Throssell, J. A. Montgomery, Jr., J. E. Peralta, 
 F. Ogliaro, M. J. Bearpark, J. J. Heyd, E. N. Brothers, K. N. Kudin, 
 V. N. Staroverov, T. A. Keith, R. Kobayashi, J. Normand, 
 K. Raghavachari, A. P. Rendell, J. C. Burant, S. S. Iyengar, 
 J. Tomasi, M. Cossi, J. M. Millam, M. Klene, C. Adamo, R. Cammi, 
 J. W. Ochterski, R. L. Martin, K. Morokuma, O. Farkas, 
 J. B. Foresman, and D. J. Fox, Gaussian, Inc., Wallingford CT, 2019.
 
 ******************************************
 Gaussian 16:  EM64W-G16RevC.01 30-May-2019
                11-Nov-2025 
 ******************************************
 %chk=C:\Users\al6323\OneDrive - Imperial College London\Desktop\TSR20251111\TS_g
 uess_opt_TS(Berny)_IRC.chk
 Default route: MaxDisk=10GB
 --------------------------------------------------------
 # irc=(calcall,maxpoints=100) pm6 nosymm scf=(xqc,tight)
 --------------------------------------------------------
 1/10=4,18=10,26=1,38=1,42=100,44=3,71=1,172=1/1,23;
 2/12=2,15=1,17=6,18=5,29=1,40=1/2;
 3/5=2,25=1,41=3900000,71=2,140=1/1,2,3;
 4/35=1/1;
 5/5=2,8=3,13=1,32=2,35=1,38=5/2,8;
 8/6=4,10=90,11=11/1;
 11/6=1,8=1,9=11,15=111,16=1,31=1/1,2,10;
 10/6=1,13=1,31=1/2;
 6/7=2,8=2,9=2,10=2,18=1,28=1/1;
 7/10=1,25=1,30=1/1,2,3,16;
 1/10=4,18=10,26=1,42=100,44=3,71=1/23(2);
 2/15=1,29=1/2;
 99/5=20/99;
 2/15=1,29=1/2;
 3/5=2,25=1,41=3900000,71=2,135=20,140=1/1,2,3;
 4/5=5,16=3,35=1/1;
 5/5=2,8=3,13=1,32=2,35=1,38=5/2,8;
 8/6=4,10=90,11=11/1;
 11/6=1,8=1,9=11,15=111,16=1,31=1/1,2,10;
 10/6=1,13=1,31=1/2;
 7/10=1,25=1,30=1/1,2,3,16;
 1/10=4,18=10,26=1,42=100,44=3,71=1/23(-8);
 2/15=1,29=1/2;
 6/7=2,8=2,9=2,10=2,18=1,19=2,28=1/1;
 99/5=20/99;
 --------------
 TS (Berny)_IRC
 --------------
 Symbolic Z-matrix:
 Charge =  0 Multiplicity = 1
 C                    -0.67179   0.95411   0.10773 
 C                     0.03391  -0.17322  -0.25954 
 C                     1.445    -0.17424  -0.25259 
 C                     2.14869   0.95205   0.12162 
 C                     1.41977   1.19953   2.09128 
 C                     0.03803   1.20055   2.08446 
 H                    -0.30005   1.95315  -0.09757 
 H                    -1.74297   0.91672   0.25514 
 H                    -0.48342  -1.12266  -0.39486 
 H                     1.96226  -1.12444  -0.38281 
 H                     1.78045   1.95164  -0.08733 
 H                     3.21831   0.91311   0.27958 
 H                     1.97614   2.12485   2.17301 
 H                     1.96985   0.32116   2.40671 
 H                    -0.51776   2.12669   2.16072 
 H                    -0.51642   0.323     2.39446 
 
 IRC-IRC-IRC-IRC-IRC-IRC-IRC-IRC-IRC-IRC-IRC-IRC-IRC-IRC-IRC-IRC-IRC-IRC
 ------------------------------------------------------------------------
 INPUT DATA FOR L123
 ------------------------------------------------------------------------
 GENERAL PARAMETERS:
 Follow reaction path in both directions.
 Maximum points per path      = 100
 Step size                    =   0.100 bohr
 Integration scheme           = HPC                                 
    Redo corrector integration= Yes                                 
    DWI Weight Power          =  2
    DWI will use Hessian update vectors when possible.
    Max correction cycles     =  20
 Initial Hessian              = CalcFC
 Hessian evaluation           = Analytic at all predictor steps
                              = Update at all corrector steps
 Hessian updating method      = Bofill                              
 ------------------------------------------------------------------------
 IRC-IRC-IRC-IRC-IRC-IRC-IRC-IRC-IRC-IRC-IRC-IRC-IRC-IRC-IRC-IRC-IRC-IRC
                          Input orientation:                          
 ---------------------------------------------------------------------
 Center     Atomic      Atomic             Coordinates (Angstroms)
 Number     Number       Type             X           Y           Z
 ---------------------------------------------------------------------
      1          6           0       -0.671785    0.954106    0.107729
      2          6           0        0.033912   -0.173215   -0.259543
      3          6           0        1.445002   -0.174244   -0.252590
      4          6           0        2.148689    0.952052    0.121619
      5          6           0        1.419769    1.199528    2.091276
      6          6           0        0.038030    1.200546    2.084465
      7          1           0       -0.300047    1.953155   -0.097574
      8          1           0       -1.742966    0.916721    0.255136
      9          1           0       -0.483418   -1.122656   -0.394863
     10          1           0        1.962256   -1.124439   -0.382809
     11          1           0        1.780446    1.951639   -0.087327
     12          1           0        3.218309    0.913108    0.279577
     13          1           0        1.976141    2.124848    2.173014
     14          1           0        1.969846    0.321164    2.406707
     15          1           0       -0.517756    2.126687    2.160721
     16          1           0       -0.516425    0.323000    2.394464
 ---------------------------------------------------------------------
                    Distance matrix (angstroms):
                    1          2          3          4          5
     1  C    0.000000
     2  C    1.379765   0.000000
     3  C    2.425653   1.411107   0.000000
     4  C    2.820509   2.425653   1.379765   0.000000
     5  C    2.892972   3.054729   2.716909   2.114738   0.000000
     6  C    2.114723   2.716911   3.054741   2.892991   1.381756
     7  H    1.085558   2.158521   2.755912   2.654536   2.883884
     8  H    1.081922   2.147126   3.407511   3.894105   3.668008
     9  H    2.144999   1.089669   2.153725   3.391040   3.898147
    10  H    3.391040   2.153725   1.089669   2.144999   3.437472
    11  H    2.654535   2.755911   2.158521   1.085558   2.332825
    12  H    3.894104   3.407511   2.147127   1.081921   2.568859
    13  H    3.556339   3.869196   3.384005   2.369271   1.082797
    14  H    3.558669   3.331837   2.755494   2.377315   1.083330
    15  H    2.369271   3.384016   3.869208   3.556351   2.149058
    16  H    2.377307   2.755513   3.331868   3.558702   2.146874
                    6          7          8          9         10
     6  C    0.000000
     7  H    2.332812   0.000000
     8  H    2.568841   1.811247   0.000000
     9  H    3.437476   3.095580   2.483549   0.000000
    10  H    3.898159   3.830269   4.278081   2.445704   0.000000
    11  H    2.883892   2.080519   3.688193   3.830267   3.095581
    12  H    3.668026   3.688193   4.961336   4.278082   2.483551
    13  H    2.149058   3.219640   4.355408   4.815569   4.134041
    14  H    2.146874   3.753296   4.332311   3.993985   3.141851
    15  H    1.082797   2.275392   2.568347   4.134055   4.815582
    16  H    1.083331   2.985712   2.536460   3.141872   3.994019
                   11         12         13         14         15
    11  H    0.000000
    12  H    1.811247   0.000000
    13  H    2.275399   2.568345   0.000000
    14  H    2.985720   2.536481   1.818771   0.000000
    15  H    3.219642   4.355417   2.493929   3.083599   0.000000
    16  H    3.753314   4.332345   3.083599   2.486302   1.818769
                   16
    16  H    0.000000
 Symmetry turned off by external request.
 Stoichiometry    C6H10
 Framework group  C1[X(C6H10)]
 Deg. of freedom    42
 Full point group                 C1      NOp   1
 Rotational constants (GHZ):           4.3991522           3.8661934           2.4556562
 Standard basis: VSTO-6G (5D, 7F)
    34 basis functions,   204 primitive gaussians,    34 cartesian basis functions
    17 alpha electrons       17 beta electrons
       nuclear repulsion energy       144.0469958352 Hartrees.
 Integral buffers will be    131072 words long.
 Regular integral format.
 Two-electron integral symmetry is turned off.
 Do NDO integrals.
 One-electron integrals computed using PRISM.
 NBasis=    34 RedAO= F EigKep=  0.00D+00  NBF=    34
 NBsUse=    34 1.00D-04 EigRej=  0.00D+00 NBFU=    34
 Simple Huckel Guess.
 Keep J ints in memory in canonical form, NReq=862294.
 Overlap will be assumed to be unity.
 Requested convergence on RMS density matrix=1.00D-08 within  32 cycles.
 Requested convergence on MAX density matrix=1.00D-06.
 Requested convergence on             energy=1.00D-06.
 No special actions if energy rises.
 SCF Done:  E(RPM6) =  0.112859952917     A.U. after   16 cycles
            NFock= 15  Conv=0.18D-08     -V/T= 1.0022
 QCSCF skips out because SCF is already converged.
 Range of M.O.s used for correlation:     1    34
 NBasis=    34 NAE=    17 NBE=    17 NFC=     0 NFV=     0
 NROrb=     34 NOA=    17 NOB=    17 NVA=    17 NVB=    17
 Symmetrizing basis deriv contribution to polar:
 IMax=3 JMax=2 DiffMx= 0.00D+00
 G2DrvN: will do    17 centers at a time, making    1 passes.
 Calling FoFCou, ICntrl=  3107 FMM=F I1Cent=   0 AccDes= 0.00D+00.
 End of G2Drv F.D. properties file   721 does not exist.
 End of G2Drv F.D. properties file   722 does not exist.
 End of G2Drv F.D. properties file   788 does not exist.
          IDoAtm=1111111111111111
          Differentiating once with respect to nuclear coordinates.
          Electric field/nuclear overlap derivatives assumed to be zero.
 Keep J ints in memory in canonical form, NReq=863961.
          There are    51 degrees of freedom in the 1st order CPHF.  IDoFFX=5 NUNeed=    51.
 LinEq1:  Iter=  0 NonCon=    48 RMS=1.64D-02 Max=1.26D-01 NDo=    48
 AX will form    51 AO Fock derivatives at one time.
 LinEq1:  Iter=  1 NonCon=    48 RMS=3.16D-03 Max=3.79D-02 NDo=    51
 LinEq1:  Iter=  2 NonCon=    48 RMS=5.75D-04 Max=5.59D-03 NDo=    51
 LinEq1:  Iter=  3 NonCon=    48 RMS=1.22D-04 Max=9.32D-04 NDo=    51
 LinEq1:  Iter=  4 NonCon=    48 RMS=1.94D-05 Max=1.67D-04 NDo=    51
 LinEq1:  Iter=  5 NonCon=    48 RMS=2.62D-06 Max=1.85D-05 NDo=    51
 LinEq1:  Iter=  6 NonCon=    48 RMS=5.22D-07 Max=5.04D-06 NDo=    51
 LinEq1:  Iter=  7 NonCon=    46 RMS=1.34D-07 Max=1.17D-06 NDo=    51
 LinEq1:  Iter=  8 NonCon=    13 RMS=2.34D-08 Max=1.65D-07 NDo=    51
 LinEq1:  Iter=  9 NonCon=     0 RMS=4.24D-09 Max=2.78D-08 NDo=    13
 Linear equations converged to 1.000D-08 1.000D-07 after     9 iterations.
 End of Minotr F.D. properties file   721 does not exist.
 End of Minotr F.D. properties file   722 does not exist.
 End of Minotr F.D. properties file   788 does not exist.

 **********************************************************************

            Population analysis using the SCF Density.

 **********************************************************************

 Alpha  occ. eigenvalues --   -1.05766  -0.95267  -0.92622  -0.80596  -0.75184
 Alpha  occ. eigenvalues --   -0.65649  -0.61926  -0.58826  -0.53048  -0.51234
 Alpha  occ. eigenvalues --   -0.50175  -0.46229  -0.46105  -0.44022  -0.42925
 Alpha  occ. eigenvalues --   -0.32755  -0.32533
 Alpha virt. eigenvalues --    0.01732   0.03067   0.09826   0.18495   0.19366
 Alpha virt. eigenvalues --    0.20970   0.21010   0.21629   0.21823   0.22492
 Alpha virt. eigenvalues --    0.22901   0.23496   0.23825   0.23973   0.24445
 Alpha virt. eigenvalues --    0.24462   0.24928
          Condensed to atoms (all electrons):
               1          2          3          4          5          6
     1  C    4.268439   0.000000   0.000000   0.000000   0.000000   0.000000
     2  C    0.000000   4.153907   0.000000   0.000000   0.000000   0.000000
     3  C    0.000000   0.000000   4.153902   0.000000   0.000000   0.000000
     4  C    0.000000   0.000000   0.000000   4.268443   0.000000   0.000000
     5  C    0.000000   0.000000   0.000000   0.000000   4.280327   0.000000
     6  C    0.000000   0.000000   0.000000   0.000000   0.000000   4.280328
     7  H    0.000000   0.000000   0.000000   0.000000   0.000000   0.000000
     8  H    0.000000   0.000000   0.000000   0.000000   0.000000   0.000000
     9  H    0.000000   0.000000   0.000000   0.000000   0.000000   0.000000
    10  H    0.000000   0.000000   0.000000   0.000000   0.000000   0.000000
    11  H    0.000000   0.000000   0.000000   0.000000   0.000000   0.000000
    12  H    0.000000   0.000000   0.000000   0.000000   0.000000   0.000000
    13  H    0.000000   0.000000   0.000000   0.000000   0.000000   0.000000
    14  H    0.000000   0.000000   0.000000   0.000000   0.000000   0.000000
    15  H    0.000000   0.000000   0.000000   0.000000   0.000000   0.000000
    16  H    0.000000   0.000000   0.000000   0.000000   0.000000   0.000000
               7          8          9         10         11         12
     1  C    0.000000   0.000000   0.000000   0.000000   0.000000   0.000000
     2  C    0.000000   0.000000   0.000000   0.000000   0.000000   0.000000
     3  C    0.000000   0.000000   0.000000   0.000000   0.000000   0.000000
     4  C    0.000000   0.000000   0.000000   0.000000   0.000000   0.000000
     5  C    0.000000   0.000000   0.000000   0.000000   0.000000   0.000000
     6  C    0.000000   0.000000   0.000000   0.000000   0.000000   0.000000
     7  H    0.850794   0.000000   0.000000   0.000000   0.000000   0.000000
     8  H    0.000000   0.865341   0.000000   0.000000   0.000000   0.000000
     9  H    0.000000   0.000000   0.862497   0.000000   0.000000   0.000000
    10  H    0.000000   0.000000   0.000000   0.862497   0.000000   0.000000
    11  H    0.000000   0.000000   0.000000   0.000000   0.850794   0.000000
    12  H    0.000000   0.000000   0.000000   0.000000   0.000000   0.865340
    13  H    0.000000   0.000000   0.000000   0.000000   0.000000   0.000000
    14  H    0.000000   0.000000   0.000000   0.000000   0.000000   0.000000
    15  H    0.000000   0.000000   0.000000   0.000000   0.000000   0.000000
    16  H    0.000000   0.000000   0.000000   0.000000   0.000000   0.000000
              13         14         15         16
     1  C    0.000000   0.000000   0.000000   0.000000
     2  C    0.000000   0.000000   0.000000   0.000000
     3  C    0.000000   0.000000   0.000000   0.000000
     4  C    0.000000   0.000000   0.000000   0.000000
     5  C    0.000000   0.000000   0.000000   0.000000
     6  C    0.000000   0.000000   0.000000   0.000000
     7  H    0.000000   0.000000   0.000000   0.000000
     8  H    0.000000   0.000000   0.000000   0.000000
     9  H    0.000000   0.000000   0.000000   0.000000
    10  H    0.000000   0.000000   0.000000   0.000000
    11  H    0.000000   0.000000   0.000000   0.000000
    12  H    0.000000   0.000000   0.000000   0.000000
    13  H    0.862551   0.000000   0.000000   0.000000
    14  H    0.000000   0.856143   0.000000   0.000000
    15  H    0.000000   0.000000   0.862552   0.000000
    16  H    0.000000   0.000000   0.000000   0.856143
 Mulliken charges:
               1
     1  C   -0.268439
     2  C   -0.153907
     3  C   -0.153902
     4  C   -0.268443
     5  C   -0.280327
     6  C   -0.280328
     7  H    0.149206
     8  H    0.134659
     9  H    0.137503
    10  H    0.137503
    11  H    0.149206
    12  H    0.134660
    13  H    0.137449
    14  H    0.143857
    15  H    0.137448
    16  H    0.143857
 Sum of Mulliken charges =   0.00000
 Mulliken charges with hydrogens summed into heavy atoms:
               1
     1  C    0.015426
     2  C   -0.016404
     3  C   -0.016399
     4  C    0.015422
     5  C    0.000978
     6  C    0.000977
 APT charges:
               1
     1  C   -0.268439
     2  C   -0.153907
     3  C   -0.153902
     4  C   -0.268443
     5  C   -0.280327
     6  C   -0.280328
     7  H    0.149206
     8  H    0.134659
     9  H    0.137503
    10  H    0.137503
    11  H    0.149206
    12  H    0.134660
    13  H    0.137449
    14  H    0.143857
    15  H    0.137448
    16  H    0.143857
 Sum of APT charges =   0.00000
 APT charges with hydrogens summed into heavy atoms:
               1
     1  C    0.015426
     2  C   -0.016404
     3  C   -0.016399
     4  C    0.015422
     5  C    0.000978
     6  C    0.000977
 Charge=              0.0000 electrons
 Dipole moment (field-independent basis, Debye):
    X=             -0.0016    Y=              0.3919    Z=              0.3885  Tot=              0.5518
 N-N= 1.440469958352D+02 E-N=-2.166860000006D+02  KE=-5.048504574707D+01
  Exact polarizability:       0.000       0.000       0.000       0.000       0.000       0.000
 Approx polarizability:      60.149      -0.093      38.313       0.115      15.729      39.137
 Calling FoFJK, ICntrl=    100127 FMM=F ISym2X=0 I1Cent= 0 IOpClX= 0 NMat=1 NMatS=1 NMatT=0.
 -------------------------------------------------------------------
 Center     Atomic                   Forces (Hartrees/Bohr)
 Number     Number              X              Y              Z
 -------------------------------------------------------------------
      1        6          -0.000000787    0.000000905   -0.000000062
      2        6           0.000000552   -0.000000887   -0.000000020
      3        6          -0.000000462   -0.000000451   -0.000000248
      4        6           0.000000205    0.000000476    0.000000224
      5        6           0.000000884    0.000000115    0.000000243
      6        6          -0.000000648   -0.000000092    0.000000347
      7        1           0.000000047    0.000000013    0.000000005
      8        1           0.000000021   -0.000000025   -0.000000013
      9        1           0.000000059    0.000000005    0.000000033
     10        1          -0.000000056    0.000000014   -0.000000067
     11        1           0.000000002   -0.000000092    0.000000231
     12        1          -0.000000064   -0.000000017    0.000000079
     13        1          -0.000000029    0.000000037   -0.000000121
     14        1           0.000000138    0.000000057   -0.000000071
     15        1           0.000000091   -0.000000013   -0.000000217
     16        1           0.000000048   -0.000000045   -0.000000343
 -------------------------------------------------------------------
 Cartesian Forces:  Max     0.000000905 RMS     0.000000324
 IRC-IRC-IRC-IRC-IRC-IRC-IRC-IRC-IRC-IRC-IRC-IRC-IRC-IRC-IRC-IRC-IRC-IRC
          ******** Start new reaction path calculation ********
 Supplied step size of   0.1000 bohr.
    Integration on MW PES will use step size of   0.2614 sqrt(amu)*bohr.
 Point Number:   0          Path Number:   1
 Calculating another point on the path.
 IRC-IRC-IRC-IRC-IRC-IRC-IRC-IRC-IRC-IRC-IRC-IRC-IRC-IRC-IRC-IRC-IRC-IRC
                          Input orientation:                          
 ---------------------------------------------------------------------
 Center     Atomic      Atomic             Coordinates (Angstroms)
 Number     Number       Type             X           Y           Z
 ---------------------------------------------------------------------
      1          6           0       -1.402489    0.277009   -0.551074
      2          6           0       -0.695728   -0.857711   -0.935899
      3          6           0        0.703673   -0.858732   -0.929004
      4          6           0        1.408261    0.274961   -0.537232
      5          6           0        0.691670    0.515413    1.397965
      6          6           0       -0.704673    0.516441    1.391081
      7          1           0       -1.039350    1.272635   -0.789701
      8          1           0       -2.475294    0.234568   -0.414707
      9          1           0       -1.221513   -1.801176   -1.078821
     10          1           0        1.229465   -1.802964   -1.066741
     11          1           0        1.048939    1.271113   -0.779415
     12          1           0        2.479606    0.230960   -0.390297
     13          1           0        1.237928    1.444418    1.507973
     14          1           0        1.231649   -0.359280    1.741434
     15          1           0       -1.250619    1.446252    1.495706
     16          1           0       -1.249301   -0.357448    1.729218
 ---------------------------------------------------------------------
                    Distance matrix (angstroms):
                    1          2          3          4          5
     1  C    0.000000
     2  C    1.391111   0.000000
     3  C    2.422531   1.399419   0.000000
     4  C    2.810785   2.422530   1.391110   0.000000
     5  C    2.870730   3.042575   2.702443   2.077572   0.000000
     6  C    2.077556   2.702445   3.042586   2.870748   1.396361
     7  H    1.086317   2.162828   2.756856   2.655163   2.890622
     8  H    1.082270   2.152108   3.400829   3.885697   3.659824
     9  H    2.151772   1.089496   2.148718   3.394021   3.893755
    10  H    3.394021   2.148718   1.089497   2.151771   3.426203
    11  H    2.655162   2.756855   2.162828   1.086317   2.332318
    12  H    3.885696   3.400829   2.152108   1.082269   2.544703
    13  H    3.546029   3.874447   3.395406   2.362098   1.083305
    14  H    3.549526   3.336364   2.767570   2.371871   1.083807
    15  H    2.362097   3.395416   3.874458   3.546040   2.156038
    16  H    2.371862   2.767589   3.336395   3.549559   2.153830
                    6          7          8          9         10
     6  C    0.000000
     7  H    2.332305   0.000000
     8  H    2.544685   1.811116   0.000000
     9  H    3.426206   3.092748   2.481384   0.000000
    10  H    3.893767   3.831916   4.278074   2.451008   0.000000
    11  H    2.890630   2.088315   3.691566   3.831914   3.092749
    12  H    3.659842   3.691566   4.954962   4.278075   2.481386
    13  H    2.156039   3.239570   4.352982   4.824338   4.144239
    14  H    2.153829   3.771899   4.329322   4.006358   3.157542
    15  H    1.083306   2.301709   2.572486   4.144253   4.824350
    16  H    1.083807   3.007690   2.539676   3.157563   4.006392
                   11         12         13         14         15
    11  H    0.000000
    12  H    1.811116   0.000000
    13  H    2.301716   2.572484   0.000000
    14  H    3.007697   2.539696   1.818755   0.000000
    15  H    3.239571   4.352990   2.488578   3.079283   0.000000
    16  H    3.771917   4.329355   3.079282   2.480981   1.818753
                   16
    16  H    0.000000
 Symmetry turned off by external request.
 Stoichiometry    C6H10
 Framework group  C1[X(C6H10)]
 Deg. of freedom    42
 Full point group                 C1      NOp   1
 Rotational constants (GHZ):           4.4149567           3.9046542           2.4736747
 Standard basis: VSTO-6G (5D, 7F)
    34 basis functions,   204 primitive gaussians,    34 cartesian basis functions
    17 alpha electrons       17 beta electrons
       nuclear repulsion energy       144.1644667878 Hartrees.
 Integral buffers will be    131072 words long.
 Regular integral format.
 Two-electron integral symmetry is turned off.
 Do NDO integrals.
 One-electron integrals computed using PRISM.
 NBasis=    34 RedAO= F EigKep=  0.00D+00  NBF=    34
 NBsUse=    34 1.00D-04 EigRej=  0.00D+00 NBFU=    34
 Initial guess from the checkpoint file:  "C:\Users\al6323\OneDrive - Imperial College London\Desktop\TSR20251111\TS_guess_opt_TS(Berny)_IRC.chk"
 B after Tr=    -1.389864   -1.287870   -1.277542
         Rot=    1.000000   -0.000047    0.000000    0.000000 Ang=  -0.01 deg.
 Keep J ints in memory in canonical form, NReq=862294.
 Overlap will be assumed to be unity.
 Requested convergence on RMS density matrix=1.00D-08 within  32 cycles.
 Requested convergence on MAX density matrix=1.00D-06.
 Requested convergence on             energy=1.00D-06.
 No special actions if energy rises.
 SCF Done:  E(RPM6) =  0.111550409460     A.U. after   14 cycles
            NFock= 13  Conv=0.99D-08     -V/T= 1.0022
 QCSCF skips out because SCF is already converged.
 Range of M.O.s used for correlation:     1    34
 NBasis=    34 NAE=    17 NBE=    17 NFC=     0 NFV=     0
 NROrb=     34 NOA=    17 NOB=    17 NVA=    17 NVB=    17
 Symmetrizing basis deriv contribution to polar:
 IMax=3 JMax=2 DiffMx= 0.00D+00
 G2DrvN: will do    17 centers at a time, making    1 passes.
 Calling FoFCou, ICntrl=  3107 FMM=F I1Cent=   0 AccDes= 0.00D+00.
 End of G2Drv F.D. properties file   721 does not exist.
 End of G2Drv F.D. properties file   722 does not exist.
 End of G2Drv F.D. properties file   788 does not exist.
          IDoAtm=1111111111111111
          Differentiating once with respect to nuclear coordinates.
          Electric field/nuclear overlap derivatives assumed to be zero.
 Keep J ints in memory in canonical form, NReq=863961.
          There are    51 degrees of freedom in the 1st order CPHF.  IDoFFX=5 NUNeed=    51.
 LinEq1:  Iter=  0 NonCon=    48 RMS=1.63D-02 Max=1.27D-01 NDo=    48
 AX will form    51 AO Fock derivatives at one time.
 LinEq1:  Iter=  1 NonCon=    48 RMS=3.23D-03 Max=3.87D-02 NDo=    51
 LinEq1:  Iter=  2 NonCon=    48 RMS=5.85D-04 Max=5.57D-03 NDo=    51
 LinEq1:  Iter=  3 NonCon=    48 RMS=1.25D-04 Max=9.80D-04 NDo=    51
 LinEq1:  Iter=  4 NonCon=    48 RMS=1.93D-05 Max=1.61D-04 NDo=    51
 LinEq1:  Iter=  5 NonCon=    48 RMS=2.63D-06 Max=1.58D-05 NDo=    51
 LinEq1:  Iter=  6 NonCon=    48 RMS=5.57D-07 Max=6.08D-06 NDo=    51
 LinEq1:  Iter=  7 NonCon=    48 RMS=1.57D-07 Max=1.48D-06 NDo=    51
 LinEq1:  Iter=  8 NonCon=    14 RMS=2.39D-08 Max=1.70D-07 NDo=    51
 LinEq1:  Iter=  9 NonCon=     0 RMS=4.49D-09 Max=3.00D-08 NDo=    14
 Linear equations converged to 1.000D-08 1.000D-07 after     9 iterations.
 End of Minotr F.D. properties file   721 does not exist.
 End of Minotr F.D. properties file   722 does not exist.
 End of Minotr F.D. properties file   788 does not exist.
 Calling FoFJK, ICntrl=    100127 FMM=F ISym2X=0 I1Cent= 0 IOpClX= 0 NMat=1 NMatS=1 NMatT=0.
 -------------------------------------------------------------------
 Center     Atomic                   Forces (Hartrees/Bohr)
 Number     Number              X              Y              Z
 -------------------------------------------------------------------
      1        6           0.003596905    0.005045984    0.015347759
      2        6           0.005696722   -0.003331241   -0.000532768
      3        6          -0.005695968   -0.003322540   -0.000589174
      4        6          -0.003741240    0.005050801    0.015311673
      5        6           0.008232477   -0.002030376   -0.014924945
      6        6          -0.008087634   -0.002018806   -0.015005546
      7        1          -0.000417748   -0.000154320   -0.001237424
      8        1           0.000202832   -0.000023467    0.000309995
      9        1          -0.000177817    0.000274276   -0.000666477
     10        1           0.000184761    0.000274012   -0.000664801
     11        1           0.000429730   -0.000155027   -0.001232993
     12        1          -0.000205963   -0.000023159    0.000308104
     13        1          -0.000328559   -0.000024145    0.000931201
     14        1          -0.000324685    0.000231622    0.000854113
     15        1           0.000319384   -0.000024679    0.000934251
     16        1           0.000316804    0.000231068    0.000857034
 -------------------------------------------------------------------
 Cartesian Forces:  Max     0.015347759 RMS     0.005069185
 IRC-IRC-IRC-IRC-IRC-IRC-IRC-IRC-IRC-IRC-IRC-IRC-IRC-IRC-IRC-IRC-IRC-IRC
 Pt  1 Step number   1 out of a maximum of  20
 Modified Bulirsch-Stoer Extrapolation Cycles:
    EPS =    0.000010000000000
      PEZero:  N= 2 I= 1 D=  6.81D-04 Err=  8.68D-04
      PEZero:  N= 3 I= 2 D=  6.81D-04 Err=  5.79D-04
      PEZero:  N= 3 I= 1 D=  1.36D-03 Err=  8.83D-08
 Maximum DWI energy   std dev =  0.000020160 at pt    45
 Maximum DWI gradient std dev =  0.028308526 at pt    34
 CORRECTOR INTEGRATION CONVERGENCE:
   Recorrection delta-x convergence threshold:    0.010000
   Delta-x Convergence Met
 Point Number:   1          Path Number:   1
   CHANGE IN THE REACTION COORDINATE =    0.26130
   NET REACTION COORDINATE UP TO THIS POINT =    0.26130
  # OF POINTS ALONG THE PATH =   1
  # OF STEPS =   1

 Calculating another point on the path.
 IRC-IRC-IRC-IRC-IRC-IRC-IRC-IRC-IRC-IRC-IRC-IRC-IRC-IRC-IRC-IRC-IRC-IRC
                          Input orientation:                          
 ---------------------------------------------------------------------
 Center     Atomic      Atomic             Coordinates (Angstroms)
 Number     Number       Type             X           Y           Z
 ---------------------------------------------------------------------
      1          6           0       -1.398554    0.282279   -0.534160
      2          6           0       -0.689559   -0.861279   -0.936459
      3          6           0        0.697504   -0.862290   -0.929625
      4          6           0        1.404166    0.280237   -0.520358
      5          6           0        0.700418    0.513203    1.381502
      6          6           0       -0.713262    0.514243    1.374533
      7          1           0       -1.044331    1.272773   -0.806815
      8          1           0       -2.473066    0.234130   -0.411111
      9          1           0       -1.224251   -1.797967   -1.088024
     10          1           0        1.232297   -1.799758   -1.075918
     11          1           0        1.054089    1.271244   -0.796477
     12          1           0        2.477341    0.230525   -0.386722
     13          1           0        1.234537    1.445617    1.520950
     14          1           0        1.228276   -0.357489    1.753531
     15          1           0       -1.247354    1.447445    1.508714
     16          1           0       -1.246042   -0.355664    1.741345
 ---------------------------------------------------------------------
                    Distance matrix (angstroms):
                    1          2          3          4          5
     1  C    0.000000
     2  C    1.404365   0.000000
     3  C    2.420721   1.387080   0.000000
     4  C    2.802754   2.420720   1.404364   0.000000
     5  C    2.851100   3.032191   2.689479   2.041227   0.000000
     6  C    2.041211   2.689480   3.032202   2.851117   1.413697
     7  H    1.086689   2.167222   2.758182   2.657503   2.899971
     8  H    1.082606   2.157964   3.394629   3.879045   3.655454
     9  H    2.159761   1.089152   2.143297   3.398492   3.891583
    10  H    3.398493   2.143297   1.089152   2.159760   3.416372
    11  H    2.657502   2.758180   2.167222   1.086689   2.333089
    12  H    3.879044   3.394629   2.157964   1.082606   2.522693
    13  H    3.536948   3.881079   3.408835   2.356655   1.083571
    14  H    3.541619   3.341847   2.781343   2.368164   1.084041
    15  H    2.356653   3.408844   3.881089   3.536958   2.163980
    16  H    2.368155   2.781359   3.341875   3.541649   2.161741
                    6          7          8          9         10
     6  C    0.000000
     7  H    2.333078   0.000000
     8  H    2.522677   1.810151   0.000000
     9  H    3.416374   3.088834   2.479348   0.000000
    10  H    3.891595   3.833523   4.278830   2.456578   0.000000
    11  H    2.899976   2.098445   3.696611   3.833522   3.088835
    12  H    3.655470   3.696611   4.950469   4.278830   2.479350
    13  H    2.163981   3.262148   4.352802   4.834586   4.156464
    14  H    2.161741   3.791816   4.328466   4.020485   3.175837
    15  H    1.083571   2.330967   2.580743   4.156475   4.834597
    16  H    1.084041   3.030778   2.546863   3.175853   4.020516
                   11         12         13         14         15
    11  H    0.000000
    12  H    1.810151   0.000000
    13  H    2.330973   2.580741   0.000000
    14  H    3.030784   2.546882   1.818055   0.000000
    15  H    3.262145   4.352808   2.481923   3.073511   0.000000
    16  H    3.791830   4.328496   3.073510   2.474349   1.818054
                   16
    16  H    0.000000
 Symmetry turned off by external request.
 Stoichiometry    C6H10
 Framework group  C1[X(C6H10)]
 Deg. of freedom    42
 Full point group                 C1      NOp   1
 Rotational constants (GHZ):           4.4259498           3.9383983           2.4887135
 Standard basis: VSTO-6G (5D, 7F)
    34 basis functions,   204 primitive gaussians,    34 cartesian basis functions
    17 alpha electrons       17 beta electrons
       nuclear repulsion energy       144.2407426246 Hartrees.
 Integral buffers will be    131072 words long.
 Regular integral format.
 Two-electron integral symmetry is turned off.
 Do NDO integrals.
 One-electron integrals computed using PRISM.
 NBasis=    34 RedAO= F EigKep=  0.00D+00  NBF=    34
 NBsUse=    34 1.00D-04 EigRej=  0.00D+00 NBFU=    34
 Initial guess from the checkpoint file:  "C:\Users\al6323\OneDrive - Imperial College London\Desktop\TSR20251111\TS_guess_opt_TS(Berny)_IRC.chk"
 B after Tr=     0.000000    0.000244    0.000095
         Rot=    1.000000   -0.000054    0.000000    0.000000 Ang=  -0.01 deg.
 Keep J ints in memory in canonical form, NReq=862294.
 Overlap will be assumed to be unity.
 Requested convergence on RMS density matrix=1.00D-08 within  32 cycles.
 Requested convergence on MAX density matrix=1.00D-06.
 Requested convergence on             energy=1.00D-06.
 No special actions if energy rises.
 SCF Done:  E(RPM6) =  0.107293543637     A.U. after   14 cycles
            NFock= 13  Conv=0.62D-08     -V/T= 1.0021
 QCSCF skips out because SCF is already converged.
 Range of M.O.s used for correlation:     1    34
 NBasis=    34 NAE=    17 NBE=    17 NFC=     0 NFV=     0
 NROrb=     34 NOA=    17 NOB=    17 NVA=    17 NVB=    17
 Symmetrizing basis deriv contribution to polar:
 IMax=3 JMax=2 DiffMx= 0.00D+00
 G2DrvN: will do    17 centers at a time, making    1 passes.
 Calling FoFCou, ICntrl=  3107 FMM=F I1Cent=   0 AccDes= 0.00D+00.
 End of G2Drv F.D. properties file   721 does not exist.
 End of G2Drv F.D. properties file   722 does not exist.
 End of G2Drv F.D. properties file   788 does not exist.
          IDoAtm=1111111111111111
          Differentiating once with respect to nuclear coordinates.
          Electric field/nuclear overlap derivatives assumed to be zero.
 Keep J ints in memory in canonical form, NReq=863961.
          There are    51 degrees of freedom in the 1st order CPHF.  IDoFFX=5 NUNeed=    51.
 LinEq1:  Iter=  0 NonCon=    48 RMS=1.61D-02 Max=1.27D-01 NDo=    48
 AX will form    51 AO Fock derivatives at one time.
 LinEq1:  Iter=  1 NonCon=    48 RMS=3.02D-03 Max=3.64D-02 NDo=    51
 LinEq1:  Iter=  2 NonCon=    48 RMS=5.37D-04 Max=4.96D-03 NDo=    51
 LinEq1:  Iter=  3 NonCon=    48 RMS=1.07D-04 Max=9.00D-04 NDo=    51
 LinEq1:  Iter=  4 NonCon=    48 RMS=1.80D-05 Max=1.26D-04 NDo=    51
 LinEq1:  Iter=  5 NonCon=    48 RMS=2.53D-06 Max=2.07D-05 NDo=    51
 LinEq1:  Iter=  6 NonCon=    48 RMS=5.99D-07 Max=6.60D-06 NDo=    51
 LinEq1:  Iter=  7 NonCon=    48 RMS=1.49D-07 Max=1.36D-06 NDo=    51
 LinEq1:  Iter=  8 NonCon=    18 RMS=2.17D-08 Max=1.44D-07 NDo=    51
 LinEq1:  Iter=  9 NonCon=     0 RMS=3.77D-09 Max=3.35D-08 NDo=    18
 Linear equations converged to 1.000D-08 1.000D-07 after     9 iterations.
 End of Minotr F.D. properties file   721 does not exist.
 End of Minotr F.D. properties file   722 does not exist.
 End of Minotr F.D. properties file   788 does not exist.
 Calling FoFJK, ICntrl=    100127 FMM=F ISym2X=0 I1Cent= 0 IOpClX= 0 NMat=1 NMatS=1 NMatT=0.
 -------------------------------------------------------------------
 Center     Atomic                   Forces (Hartrees/Bohr)
 Number     Number              X              Y              Z
 -------------------------------------------------------------------
      1        6           0.007704860    0.009859471    0.032301994
      2        6           0.010450428   -0.006495713   -0.000891071
      3        6          -0.010450755   -0.006480471   -0.000994400
      4        6          -0.008008805    0.009870558    0.032224750
      5        6           0.016418142   -0.004135610   -0.031522030
      6        6          -0.016112158   -0.004112362   -0.031682938
      7        1          -0.000857816   -0.000194485   -0.002602138
      8        1           0.000403938   -0.000069612    0.000606919
      9        1          -0.000444945    0.000572239   -0.001529662
     10        1           0.000460805    0.000571592   -0.001525296
     11        1           0.000883085   -0.000195705   -0.002593437
     12        1          -0.000410032   -0.000069037    0.000603019
     13        1          -0.000656090    0.000038188    0.002001183
     14        1          -0.000645529    0.000402383    0.001794716
     15        1           0.000636365    0.000037181    0.002007433
     16        1           0.000628506    0.000401382    0.001800957
 -------------------------------------------------------------------
 Cartesian Forces:  Max     0.032301994 RMS     0.010511286
 IRC-IRC-IRC-IRC-IRC-IRC-IRC-IRC-IRC-IRC-IRC-IRC-IRC-IRC-IRC-IRC-IRC-IRC
 Pt  2 Step number   1 out of a maximum of  20
 Modified Bulirsch-Stoer Extrapolation Cycles:
    EPS =    0.000010000000000
      PEZero:  N= 2 I= 1 D=  1.36D-03 Err=  1.81D-05
      PEZero:  N= 3 I= 2 D=  1.36D-03 Err=  1.20D-05
      PEZero:  N= 3 I= 1 D=  2.72D-03 Err=  5.84D-08
 Maximum DWI energy   std dev =  0.000013479 at pt    17
 Maximum DWI gradient std dev =  0.010503027 at pt    13
 CORRECTOR INTEGRATION CONVERGENCE:
   Recorrection delta-x convergence threshold:    0.010000
   Delta-x Convergence Met
 Point Number:   2          Path Number:   1
   CHANGE IN THE REACTION COORDINATE =    0.26127
   NET REACTION COORDINATE UP TO THIS POINT =    0.52257
  # OF POINTS ALONG THE PATH =   2
  # OF STEPS =   1

 Calculating another point on the path.
 IRC-IRC-IRC-IRC-IRC-IRC-IRC-IRC-IRC-IRC-IRC-IRC-IRC-IRC-IRC-IRC-IRC-IRC
                          Input orientation:                          
 ---------------------------------------------------------------------
 Center     Atomic      Atomic             Coordinates (Angstroms)
 Number     Number       Type             X           Y           Z
 ---------------------------------------------------------------------
      1          6           0       -1.394539    0.287392   -0.517051
      2          6           0       -0.684203   -0.864693   -0.936905
      3          6           0        0.692148   -0.865697   -0.930124
      4          6           0        1.399990    0.285355   -0.503289
      5          6           0        0.709021    0.511048    1.364807
      6          6           0       -0.721702    0.512100    1.357753
      7          1           0       -1.049569    1.272130   -0.823165
      8          1           0       -2.470741    0.233693   -0.407359
      9          1           0       -1.227263   -1.794433   -1.098045
     10          1           0        1.235413   -1.796229   -1.085909
     11          1           0        1.059487    1.270594   -0.812774
     12          1           0        2.474979    0.230091   -0.382992
     13          1           0        1.230599    1.446358    1.533633
     14          1           0        1.224371   -0.355399    1.764843
     15          1           0       -1.243540    1.448181    1.521434
     16          1           0       -1.242245   -0.353580    1.752695
 ---------------------------------------------------------------------
                    Distance matrix (angstroms):
                    1          2          3          4          5
     1  C    0.000000
     2  C    1.417093   0.000000
     3  C    2.419608   1.376368   0.000000
     4  C    2.794564   2.419607   1.417092   0.000000
     5  C    2.831320   3.021856   2.676270   2.004534   0.000000
     6  C    2.004518   2.676271   3.021867   2.831337   1.430740
     7  H    1.087391   2.170816   2.759587   2.660148   2.908454
     8  H    1.083110   2.163005   3.389072   3.872265   3.650806
     9  H    2.167840   1.088713   2.138899   3.403192   3.889740
    10  H    3.403193   2.138899   1.088713   2.167839   3.406850
    11  H    2.660146   2.759586   2.170817   1.087391   2.332722
    12  H    3.872263   3.389071   2.163005   1.083110   2.500470
    13  H    3.527018   3.887285   3.421349   2.350675   1.084136
    14  H    3.532550   3.346861   2.794014   2.363436   1.084595
    15  H    2.350671   3.421356   3.887294   3.527027   2.171461
    16  H    2.363426   2.794029   3.346888   3.532578   2.169211
                    6          7          8          9         10
     6  C    0.000000
     7  H    2.332712   0.000000
     8  H    2.500454   1.808584   0.000000
     9  H    3.406851   3.083982   2.477212   0.000000
    10  H    3.889752   3.834711   4.279789   2.462707   0.000000
    11  H    2.908459   2.109082   3.701626   3.834709   3.083983
    12  H    3.650821   3.701627   4.945782   4.279789   2.477214
    13  H    2.171463   3.283903   4.351772   4.844537   4.168500
    14  H    2.169211   3.810176   4.326585   4.034532   3.194197
    15  H    1.084137   2.359187   2.588677   4.168510   4.844548
    16  H    1.084595   3.052067   2.553414   3.194213   4.034563
                   11         12         13         14         15
    11  H    0.000000
    12  H    1.808584   0.000000
    13  H    2.359194   2.588675   0.000000
    14  H    3.052073   2.553432   1.816543   0.000000
    15  H    3.283899   4.351778   2.474169   3.066388   0.000000
    16  H    3.810189   4.326614   3.066386   2.466647   1.816542
                   16
    16  H    0.000000
 Symmetry turned off by external request.
 Stoichiometry    C6H10
 Framework group  C1[X(C6H10)]
 Deg. of freedom    42
 Full point group                 C1      NOp   1
 Rotational constants (GHZ):           4.4371954           3.9732451           2.5036070
 Standard basis: VSTO-6G (5D, 7F)
    34 basis functions,   204 primitive gaussians,    34 cartesian basis functions
    17 alpha electrons       17 beta electrons
       nuclear repulsion energy       144.3271585781 Hartrees.
 Integral buffers will be    131072 words long.
 Regular integral format.
 Two-electron integral symmetry is turned off.
 Do NDO integrals.
 One-electron integrals computed using PRISM.
 NBasis=    34 RedAO= F EigKep=  0.00D+00  NBF=    34
 NBsUse=    34 1.00D-04 EigRej=  0.00D+00 NBFU=    34
 Initial guess from the checkpoint file:  "C:\Users\al6323\OneDrive - Imperial College London\Desktop\TSR20251111\TS_guess_opt_TS(Berny)_IRC.chk"
 B after Tr=     0.000000    0.000221    0.000054
         Rot=    1.000000   -0.000069    0.000000    0.000000 Ang=  -0.01 deg.
 Keep J ints in memory in canonical form, NReq=862294.
 Overlap will be assumed to be unity.
 Requested convergence on RMS density matrix=1.00D-08 within  32 cycles.
 Requested convergence on MAX density matrix=1.00D-06.
 Requested convergence on             energy=1.00D-06.
 No special actions if energy rises.
 SCF Done:  E(RPM6) =  0.100372143665     A.U. after   14 cycles
            NFock= 13  Conv=0.27D-08     -V/T= 1.0020
 QCSCF skips out because SCF is already converged.
 Range of M.O.s used for correlation:     1    34
 NBasis=    34 NAE=    17 NBE=    17 NFC=     0 NFV=     0
 NROrb=     34 NOA=    17 NOB=    17 NVA=    17 NVB=    17
 Symmetrizing basis deriv contribution to polar:
 IMax=3 JMax=2 DiffMx= 0.00D+00
 G2DrvN: will do    17 centers at a time, making    1 passes.
 Calling FoFCou, ICntrl=  3107 FMM=F I1Cent=   0 AccDes= 0.00D+00.
 End of G2Drv F.D. properties file   721 does not exist.
 End of G2Drv F.D. properties file   722 does not exist.
 End of G2Drv F.D. properties file   788 does not exist.
          IDoAtm=1111111111111111
          Differentiating once with respect to nuclear coordinates.
          Electric field/nuclear overlap derivatives assumed to be zero.
 Keep J ints in memory in canonical form, NReq=863961.
          There are    51 degrees of freedom in the 1st order CPHF.  IDoFFX=5 NUNeed=    51.
 LinEq1:  Iter=  0 NonCon=    48 RMS=1.57D-02 Max=1.22D-01 NDo=    48
 AX will form    51 AO Fock derivatives at one time.
 LinEq1:  Iter=  1 NonCon=    48 RMS=2.64D-03 Max=3.18D-02 NDo=    51
 LinEq1:  Iter=  2 NonCon=    48 RMS=4.55D-04 Max=4.29D-03 NDo=    51
 LinEq1:  Iter=  3 NonCon=    48 RMS=8.28D-05 Max=7.67D-04 NDo=    51
 LinEq1:  Iter=  4 NonCon=    48 RMS=1.54D-05 Max=1.27D-04 NDo=    51
 LinEq1:  Iter=  5 NonCon=    48 RMS=2.75D-06 Max=2.60D-05 NDo=    51
 LinEq1:  Iter=  6 NonCon=    48 RMS=5.41D-07 Max=5.08D-06 NDo=    51
 LinEq1:  Iter=  7 NonCon=    46 RMS=1.15D-07 Max=9.60D-07 NDo=    51
 LinEq1:  Iter=  8 NonCon=    12 RMS=1.72D-08 Max=1.45D-07 NDo=    51
 LinEq1:  Iter=  9 NonCon=     0 RMS=2.57D-09 Max=2.02D-08 NDo=    12
 Linear equations converged to 1.000D-08 1.000D-07 after     9 iterations.
 End of Minotr F.D. properties file   721 does not exist.
 End of Minotr F.D. properties file   722 does not exist.
 End of Minotr F.D. properties file   788 does not exist.
 Calling FoFJK, ICntrl=    100127 FMM=F ISym2X=0 I1Cent= 0 IOpClX= 0 NMat=1 NMatS=1 NMatT=0.
 -------------------------------------------------------------------
 Center     Atomic                   Forces (Hartrees/Bohr)
 Number     Number              X              Y              Z
 -------------------------------------------------------------------
      1        6           0.011207187    0.013075711    0.045870919
      2        6           0.012407381   -0.008454337   -0.000849087
      3        6          -0.012410930   -0.008436299   -0.000971752
      4        6          -0.011640042    0.013092004    0.045758539
      5        6           0.022161225   -0.005660078   -0.044983032
      6        6          -0.021724416   -0.005628640   -0.045199953
      7        1          -0.001218054   -0.000338531   -0.003464375
      8        1           0.000568020   -0.000099581    0.000902984
      9        1          -0.000702941    0.000861692   -0.002322259
     10        1           0.000727020    0.000860652   -0.002315310
     11        1           0.001251588   -0.000340291   -0.003452105
     12        1          -0.000577078   -0.000098764    0.000897474
     13        1          -0.000991455    0.000013860    0.002717242
     14        1          -0.000975436    0.000570848    0.002337248
     15        1           0.000964613    0.000012352    0.002726725
     16        1           0.000953317    0.000569402    0.002346743
 -------------------------------------------------------------------
 Cartesian Forces:  Max     0.045870919 RMS     0.014733750
 IRC-IRC-IRC-IRC-IRC-IRC-IRC-IRC-IRC-IRC-IRC-IRC-IRC-IRC-IRC-IRC-IRC-IRC
 Pt  3 Step number   1 out of a maximum of  20
 Modified Bulirsch-Stoer Extrapolation Cycles:
    EPS =    0.000010000000000
      PEZero:  N= 2 I= 1 D=  1.36D-03 Err=  3.22D-05
      PEZero:  N= 3 I= 2 D=  1.36D-03 Err=  2.14D-05
      PEZero:  N= 3 I= 1 D=  2.72D-03 Err=  8.12D-08
 Maximum DWI energy   std dev =  0.000021085 at pt    28
 Maximum DWI gradient std dev =  0.006504280 at pt    24
 CORRECTOR INTEGRATION CONVERGENCE:
   Recorrection delta-x convergence threshold:    0.010000
   Delta-x Convergence Met
 Point Number:   3          Path Number:   1
   CHANGE IN THE REACTION COORDINATE =    0.26128
   NET REACTION COORDINATE UP TO THIS POINT =    0.78385
  # OF POINTS ALONG THE PATH =   3
  # OF STEPS =   1

 Calculating another point on the path.
 IRC-IRC-IRC-IRC-IRC-IRC-IRC-IRC-IRC-IRC-IRC-IRC-IRC-IRC-IRC-IRC-IRC-IRC
                          Input orientation:                          
 ---------------------------------------------------------------------
 Center     Atomic      Atomic             Coordinates (Angstroms)
 Number     Number       Type             X           Y           Z
 ---------------------------------------------------------------------
      1          6           0       -1.390249    0.292158   -0.499635
      2          6           0       -0.679856   -0.867755   -0.937147
      3          6           0        0.687799   -0.868752   -0.930410
      4          6           0        1.395535    0.290128   -0.485916
      5          6           0        0.717174    0.508935    1.347678
      6          6           0       -0.729689    0.510000    1.340544
      7          1           0       -1.054918    1.270757   -0.838247
      8          1           0       -2.468199    0.233261   -0.403048
      9          1           0       -1.230605   -1.790466   -1.108832
     10          1           0        1.238867   -1.792267   -1.096664
     11          1           0        1.064981    1.269213   -0.827802
     12          1           0        2.472394    0.229663   -0.378706
     13          1           0        1.226126    1.446561    1.545518
     14          1           0        1.219948   -0.353040    1.774898
     15          1           0       -1.239185    1.448376    1.533362
     16          1           0       -1.237917   -0.351227    1.762793
 ---------------------------------------------------------------------
                    Distance matrix (angstroms):
                    1          2          3          4          5
     1  C    0.000000
     2  C    1.428801   0.000000
     3  C    2.419000   1.367672   0.000000
     4  C    2.785818   2.418998   1.428800   0.000000
     5  C    2.810834   3.011212   2.662437   1.967261   0.000000
     6  C    1.967245   2.662437   3.011222   2.810850   1.446881
     7  H    1.088467   2.173404   2.760987   2.662797   2.915296
     8  H    1.083871   2.166950   3.384209   3.865042   3.645222
     9  H    2.175759   1.088207   2.135805   3.407860   3.887870
    10  H    3.407861   2.135805   1.088207   2.175758   3.397425
    11  H    2.662796   2.760986   2.173404   1.088466   2.330602
    12  H    3.865040   3.384208   2.166950   1.083870   2.477739
    13  H    3.515780   3.892615   3.432300   2.343663   1.085041
    14  H    3.521776   3.351026   2.804965   2.357070   1.085496
    15  H    2.343659   3.432307   3.892624   3.515789   2.178157
    16  H    2.357060   2.804980   3.351053   3.521804   2.175910
                    6          7          8          9         10
     6  C    0.000000
     7  H    2.330592   0.000000
     8  H    2.477724   1.806422   0.000000
     9  H    3.397426   3.078176   2.474923   0.000000
    10  H    3.887882   3.835405   4.280912   2.469502   0.000000
    11  H    2.915300   2.119925   3.706342   3.835404   3.078178
    12  H    3.645236   3.706343   4.940655   4.280912   2.474925
    13  H    2.178158   3.303998   4.349373   4.853807   4.179867
    14  H    2.175910   3.826259   4.323150   4.048123   3.212102
    15  H    1.085042   2.385379   2.595509   4.179876   4.853817
    16  H    1.085496   3.070787   2.558533   3.212117   4.048154
                   11         12         13         14         15
    11  H    0.000000
    12  H    1.806422   0.000000
    13  H    2.385386   2.595508   0.000000
    14  H    3.070793   2.558550   1.814171   0.000000
    15  H    3.303994   4.349377   2.465341   3.057903   0.000000
    16  H    3.826271   4.323178   3.057901   2.457896   1.814170
                   16
    16  H    0.000000
 Symmetry turned off by external request.
 Stoichiometry    C6H10
 Framework group  C1[X(C6H10)]
 Deg. of freedom    42
 Full point group                 C1      NOp   1
 Rotational constants (GHZ):           4.4498667           4.0105158           2.5189660
 Standard basis: VSTO-6G (5D, 7F)
    34 basis functions,   204 primitive gaussians,    34 cartesian basis functions
    17 alpha electrons       17 beta electrons
       nuclear repulsion energy       144.4348154230 Hartrees.
 Integral buffers will be    131072 words long.
 Regular integral format.
 Two-electron integral symmetry is turned off.
 Do NDO integrals.
 One-electron integrals computed using PRISM.
 NBasis=    34 RedAO= F EigKep=  0.00D+00  NBF=    34
 NBsUse=    34 1.00D-04 EigRej=  0.00D+00 NBFU=    34
 Initial guess from the checkpoint file:  "C:\Users\al6323\OneDrive - Imperial College London\Desktop\TSR20251111\TS_guess_opt_TS(Berny)_IRC.chk"
 B after Tr=     0.000000    0.000199    0.000013
         Rot=    1.000000   -0.000086    0.000000    0.000000 Ang=  -0.01 deg.
 Keep J ints in memory in canonical form, NReq=862294.
 Overlap will be assumed to be unity.
 Requested convergence on RMS density matrix=1.00D-08 within  32 cycles.
 Requested convergence on MAX density matrix=1.00D-06.
 Requested convergence on             energy=1.00D-06.
 No special actions if energy rises.
 SCF Done:  E(RPM6) =  0.915968252785E-01 A.U. after   12 cycles
            NFock= 11  Conv=0.36D-08     -V/T= 1.0018
 QCSCF skips out because SCF is already converged.
 Range of M.O.s used for correlation:     1    34
 NBasis=    34 NAE=    17 NBE=    17 NFC=     0 NFV=     0
 NROrb=     34 NOA=    17 NOB=    17 NVA=    17 NVB=    17
 Symmetrizing basis deriv contribution to polar:
 IMax=3 JMax=2 DiffMx= 0.00D+00
 G2DrvN: will do    17 centers at a time, making    1 passes.
 Calling FoFCou, ICntrl=  3107 FMM=F I1Cent=   0 AccDes= 0.00D+00.
 End of G2Drv F.D. properties file   721 does not exist.
 End of G2Drv F.D. properties file   722 does not exist.
 End of G2Drv F.D. properties file   788 does not exist.
          IDoAtm=1111111111111111
          Differentiating once with respect to nuclear coordinates.
          Electric field/nuclear overlap derivatives assumed to be zero.
 Keep J ints in memory in canonical form, NReq=863961.
          There are    51 degrees of freedom in the 1st order CPHF.  IDoFFX=5 NUNeed=    51.
 LinEq1:  Iter=  0 NonCon=    48 RMS=1.53D-02 Max=1.05D-01 NDo=    48
 AX will form    51 AO Fock derivatives at one time.
 LinEq1:  Iter=  1 NonCon=    48 RMS=2.25D-03 Max=2.72D-02 NDo=    51
 LinEq1:  Iter=  2 NonCon=    48 RMS=3.76D-04 Max=3.66D-03 NDo=    51
 LinEq1:  Iter=  3 NonCon=    48 RMS=6.71D-05 Max=6.37D-04 NDo=    51
 LinEq1:  Iter=  4 NonCon=    48 RMS=1.29D-05 Max=1.25D-04 NDo=    51
 LinEq1:  Iter=  5 NonCon=    48 RMS=2.69D-06 Max=2.51D-05 NDo=    51
 LinEq1:  Iter=  6 NonCon=    48 RMS=4.48D-07 Max=3.57D-06 NDo=    51
 LinEq1:  Iter=  7 NonCon=    46 RMS=8.17D-08 Max=6.37D-07 NDo=    51
 LinEq1:  Iter=  8 NonCon=     4 RMS=1.18D-08 Max=1.05D-07 NDo=    51
 LinEq1:  Iter=  9 NonCon=     0 RMS=1.84D-09 Max=7.86D-09 NDo=     4
 Linear equations converged to 1.000D-08 1.000D-07 after     9 iterations.
 End of Minotr F.D. properties file   721 does not exist.
 End of Minotr F.D. properties file   722 does not exist.
 End of Minotr F.D. properties file   788 does not exist.
 Calling FoFJK, ICntrl=    100127 FMM=F ISym2X=0 I1Cent= 0 IOpClX= 0 NMat=1 NMatS=1 NMatT=0.
 -------------------------------------------------------------------
 Center     Atomic                   Forces (Hartrees/Bohr)
 Number     Number              X              Y              Z
 -------------------------------------------------------------------
      1        6           0.013982572    0.014336904    0.054992174
      2        6           0.011838764   -0.008927227   -0.000380773
      3        6          -0.011847674   -0.008910051   -0.000497896
      4        6          -0.014503432    0.014357318    0.054852134
      5        6           0.024735524   -0.006526283   -0.054324008
      6        6          -0.024207668   -0.006491209   -0.054565769
      7        1          -0.001439436   -0.000547183   -0.003727955
      8        1           0.000714710   -0.000112021    0.001223023
      9        1          -0.000911965    0.001129359   -0.002925053
     10        1           0.000942360    0.001128005   -0.002916013
     11        1           0.001475254   -0.000549264   -0.003713516
     12        1          -0.000726937   -0.000110987    0.001216068
     13        1          -0.001285421   -0.000101149    0.002963005
     14        1          -0.001264107    0.000714367    0.002408441
     15        1           0.001255963   -0.000103087    0.002975349
     16        1           0.001241493    0.000712506    0.002420788
 -------------------------------------------------------------------
 Cartesian Forces:  Max     0.054992174 RMS     0.017438074
 IRC-IRC-IRC-IRC-IRC-IRC-IRC-IRC-IRC-IRC-IRC-IRC-IRC-IRC-IRC-IRC-IRC-IRC
 Pt  4 Step number   1 out of a maximum of  20
 Modified Bulirsch-Stoer Extrapolation Cycles:
    EPS =    0.000010000000000
      PEZero:  N= 2 I= 1 D=  1.36D-03 Err=  3.57D-05
      PEZero:  N= 3 I= 2 D=  1.36D-03 Err=  2.38D-05
      PEZero:  N= 3 I= 1 D=  2.72D-03 Err=  9.34D-08
 Maximum DWI energy   std dev =  0.000018825 at pt    45
 Maximum DWI gradient std dev =  0.004528354 at pt    35
 CORRECTOR INTEGRATION CONVERGENCE:
   Recorrection delta-x convergence threshold:    0.010000
   Delta-x Convergence Met
 Point Number:   4          Path Number:   1
   CHANGE IN THE REACTION COORDINATE =    0.26127
   NET REACTION COORDINATE UP TO THIS POINT =    1.04512
  # OF POINTS ALONG THE PATH =   4
  # OF STEPS =   1

 Calculating another point on the path.
 IRC-IRC-IRC-IRC-IRC-IRC-IRC-IRC-IRC-IRC-IRC-IRC-IRC-IRC-IRC-IRC-IRC-IRC
                          Input orientation:                          
 ---------------------------------------------------------------------
 Center     Atomic      Atomic             Coordinates (Angstroms)
 Number     Number       Type             X           Y           Z
 ---------------------------------------------------------------------
      1          6           0       -1.385675    0.296533   -0.481947
      2          6           0       -0.676438   -0.870431   -0.937168
      3          6           0        0.684377   -0.871423   -0.930464
      4          6           0        1.390794    0.294509   -0.468273
      5          6           0        0.724803    0.506874    1.330135
      6          6           0       -0.737147    0.507948    1.322927
      7          1           0       -1.060261    1.268701   -0.851738
      8          1           0       -2.465421    0.232850   -0.398019
      9          1           0       -1.234242   -1.786009   -1.120268
     10          1           0        1.242623   -1.787816   -1.108063
     11          1           0        1.070454    1.267149   -0.841239
     12          1           0        2.469566    0.229256   -0.373704
     13          1           0        1.221173    1.446196    1.556259
     14          1           0        1.215056   -0.350466    1.783410
     15          1           0       -1.234339    1.448004    1.544151
     16          1           0       -1.233106   -0.348660    1.771353
 ---------------------------------------------------------------------
                    Distance matrix (angstroms):
                    1          2          3          4          5
     1  C    0.000000
     2  C    1.439461   0.000000
     3  C    2.418761   1.360832   0.000000
     4  C    2.776504   2.418759   1.439459   0.000000
     5  C    2.789624   3.000184   2.647951   1.929486   0.000000
     6  C    1.929470   2.647951   3.000194   2.789639   1.461968
     7  H    1.089840   2.174972   2.762262   2.665289   2.920172
     8  H    1.084874   2.169878   3.379963   3.857348   3.638562
     9  H    2.183430   1.087637   2.133916   3.412400   3.885826
    10  H    3.412401   2.133916   1.087638   2.183429   3.388000
    11  H    2.665288   2.762260   2.174972   1.089839   2.326448
    12  H    3.857347   3.379962   2.169879   1.084873   2.454453
    13  H    3.503094   3.896777   3.441409   2.335355   1.086206
    14  H    3.509167   3.354051   2.813917   2.348820   1.086664
    15  H    2.335351   3.441415   3.896785   3.503102   2.183979
    16  H    2.348811   2.813931   3.354078   3.509194   2.181747
                    6          7          8          9         10
     6  C    0.000000
     7  H    2.326438   0.000000
     8  H    2.454438   1.803697   0.000000
     9  H    3.388000   3.071422   2.472497   0.000000
    10  H    3.885838   3.835527   4.282155   2.476896   0.000000
    11  H    2.920175   2.130742   3.710611   3.835526   3.071424
    12  H    3.638576   3.710612   4.935049   4.282155   2.472499
    13  H    2.183981   3.321882   4.345387   4.862100   4.190215
    14  H    2.181747   3.839632   4.317963   4.060935   3.229140
    15  H    1.086207   2.408887   2.600805   4.190223   4.862110
    16  H    1.086665   3.086477   2.561822   3.229155   4.060965
                   11         12         13         14         15
    11  H    0.000000
    12  H    1.803697   0.000000
    13  H    2.408894   2.600804   0.000000
    14  H    3.086482   2.561838   1.810975   0.000000
    15  H    3.321877   4.345391   2.455543   3.048160   0.000000
    16  H    3.839644   4.317990   3.048157   2.448193   1.810974
                   16
    16  H    0.000000
 Symmetry turned off by external request.
 Stoichiometry    C6H10
 Framework group  C1[X(C6H10)]
 Deg. of freedom    42
 Full point group                 C1      NOp   1
 Rotational constants (GHZ):           4.4643274           4.0505191           2.5349477
 Standard basis: VSTO-6G (5D, 7F)
    34 basis functions,   204 primitive gaussians,    34 cartesian basis functions
    17 alpha electrons       17 beta electrons
       nuclear repulsion energy       144.5674362688 Hartrees.
 Integral buffers will be    131072 words long.
 Regular integral format.
 Two-electron integral symmetry is turned off.
 Do NDO integrals.
 One-electron integrals computed using PRISM.
 NBasis=    34 RedAO= F EigKep=  0.00D+00  NBF=    34
 NBsUse=    34 1.00D-04 EigRej=  0.00D+00 NBFU=    34
 Initial guess from the checkpoint file:  "C:\Users\al6323\OneDrive - Imperial College London\Desktop\TSR20251111\TS_guess_opt_TS(Berny)_IRC.chk"
 B after Tr=     0.000000    0.000179   -0.000030
         Rot=    1.000000   -0.000104    0.000000   -0.000001 Ang=  -0.01 deg.
 Keep J ints in memory in canonical form, NReq=862294.
 Overlap will be assumed to be unity.
 Requested convergence on RMS density matrix=1.00D-08 within  32 cycles.
 Requested convergence on MAX density matrix=1.00D-06.
 Requested convergence on             energy=1.00D-06.
 No special actions if energy rises.
 SCF Done:  E(RPM6) =  0.817186888583E-01 A.U. after   11 cycles
            NFock= 10  Conv=0.99D-08     -V/T= 1.0016
 QCSCF skips out because SCF is already converged.
 Range of M.O.s used for correlation:     1    34
 NBasis=    34 NAE=    17 NBE=    17 NFC=     0 NFV=     0
 NROrb=     34 NOA=    17 NOB=    17 NVA=    17 NVB=    17
 Symmetrizing basis deriv contribution to polar:
 IMax=3 JMax=2 DiffMx= 0.00D+00
 G2DrvN: will do    17 centers at a time, making    1 passes.
 Calling FoFCou, ICntrl=  3107 FMM=F I1Cent=   0 AccDes= 0.00D+00.
 End of G2Drv F.D. properties file   721 does not exist.
 End of G2Drv F.D. properties file   722 does not exist.
 End of G2Drv F.D. properties file   788 does not exist.
          IDoAtm=1111111111111111
          Differentiating once with respect to nuclear coordinates.
          Electric field/nuclear overlap derivatives assumed to be zero.
 Keep J ints in memory in canonical form, NReq=863961.
          There are    51 degrees of freedom in the 1st order CPHF.  IDoFFX=5 NUNeed=    51.
 LinEq1:  Iter=  0 NonCon=    48 RMS=1.50D-02 Max=9.51D-02 NDo=    48
 AX will form    51 AO Fock derivatives at one time.
 LinEq1:  Iter=  1 NonCon=    48 RMS=1.99D-03 Max=2.27D-02 NDo=    51
 LinEq1:  Iter=  2 NonCon=    48 RMS=3.10D-04 Max=3.01D-03 NDo=    51
 LinEq1:  Iter=  3 NonCon=    48 RMS=5.59D-05 Max=5.31D-04 NDo=    51
 LinEq1:  Iter=  4 NonCon=    48 RMS=1.15D-05 Max=1.16D-04 NDo=    51
 LinEq1:  Iter=  5 NonCon=    48 RMS=2.37D-06 Max=2.02D-05 NDo=    51
 LinEq1:  Iter=  6 NonCon=    48 RMS=3.47D-07 Max=2.61D-06 NDo=    51
 LinEq1:  Iter=  7 NonCon=    40 RMS=5.71D-08 Max=4.67D-07 NDo=    51
 LinEq1:  Iter=  8 NonCon=     0 RMS=8.30D-09 Max=5.41D-08 NDo=    51
 Linear equations converged to 1.000D-08 1.000D-07 after     8 iterations.
 End of Minotr F.D. properties file   721 does not exist.
 End of Minotr F.D. properties file   722 does not exist.
 End of Minotr F.D. properties file   788 does not exist.
 Calling FoFJK, ICntrl=    100127 FMM=F ISym2X=0 I1Cent= 0 IOpClX= 0 NMat=1 NMatS=1 NMatT=0.
 -------------------------------------------------------------------
 Center     Atomic                   Forces (Hartrees/Bohr)
 Number     Number              X              Y              Z
 -------------------------------------------------------------------
      1        6           0.016048472    0.014202296    0.060501845
      2        6           0.010019082   -0.008402968    0.000332851
      3        6          -0.010034377   -0.008388449    0.000233611
      4        6          -0.016623825    0.014225794    0.060341395
      5        6           0.025013304   -0.006890528   -0.060249953
      6        6          -0.024427442   -0.006855116   -0.060493992
      7        1          -0.001539387   -0.000756812   -0.003563579
      8        1           0.000837448   -0.000113947    0.001547483
      9        1          -0.001067645    0.001370633   -0.003344411
     10        1           0.001102514    0.001369044   -0.003333816
     11        1           0.001573281   -0.000759041   -0.003548189
     12        1          -0.000852878   -0.000112728    0.001539308
     13        1          -0.001512639   -0.000254063    0.002852892
     14        1          -0.001487950    0.000812201    0.002151259
     15        1           0.001484028   -0.000256336    0.002867472
     16        1           0.001468014    0.000810016    0.002165825
 -------------------------------------------------------------------
 Cartesian Forces:  Max     0.060501845 RMS     0.018979191
 IRC-IRC-IRC-IRC-IRC-IRC-IRC-IRC-IRC-IRC-IRC-IRC-IRC-IRC-IRC-IRC-IRC-IRC
 Pt  5 Step number   1 out of a maximum of  20
 Modified Bulirsch-Stoer Extrapolation Cycles:
    EPS =    0.000010000000000
      PEZero:  N= 2 I= 1 D=  1.36D-03 Err=  3.26D-05
      PEZero:  N= 3 I= 2 D=  1.36D-03 Err=  2.17D-05
      PEZero:  N= 3 I= 1 D=  2.72D-03 Err=  9.08D-08
 Maximum DWI energy   std dev =  0.000014004 at pt    45
 Maximum DWI gradient std dev =  0.003302674 at pt    35
 CORRECTOR INTEGRATION CONVERGENCE:
   Recorrection delta-x convergence threshold:    0.010000
   Delta-x Convergence Met
 Point Number:   5          Path Number:   1
   CHANGE IN THE REACTION COORDINATE =    0.26127
   NET REACTION COORDINATE UP TO THIS POINT =    1.30639
  # OF POINTS ALONG THE PATH =   5
  # OF STEPS =   1

 Calculating another point on the path.
 IRC-IRC-IRC-IRC-IRC-IRC-IRC-IRC-IRC-IRC-IRC-IRC-IRC-IRC-IRC-IRC-IRC-IRC
                          Input orientation:                          
 ---------------------------------------------------------------------
 Center     Atomic      Atomic             Coordinates (Angstroms)
 Number     Number       Type             X           Y           Z
 ---------------------------------------------------------------------
      1          6           0       -1.380847    0.300497   -0.464037
      2          6           0       -0.673812   -0.872719   -0.936964
      3          6           0        0.681746   -0.873707   -0.930286
      4          6           0        1.385795    0.298481   -0.450412
      5          6           0        0.731875    0.504872    1.312228
      6          6           0       -0.744045    0.505957    1.304951
      7          1           0       -1.065512    1.266048   -0.863439
      8          1           0       -2.462415    0.232461   -0.392177
      9          1           0       -1.238135   -1.781013   -1.132258
     10          1           0        1.246641   -1.782825   -1.120014
     11          1           0        1.075816    1.264489   -0.852887
     12          1           0        2.466501    0.228871   -0.367891
     13          1           0        1.215815    1.445294    1.565614
     14          1           0        1.209762   -0.347757    1.790208
     15          1           0       -1.229074    1.447094    1.553558
     16          1           0       -1.227874   -0.345959    1.778203
 ---------------------------------------------------------------------
                    Distance matrix (angstroms):
                    1          2          3          4          5
     1  C    0.000000
     2  C    1.449135   0.000000
     3  C    2.418766   1.355574   0.000000
     4  C    2.766676   2.418764   1.449134   0.000000
     5  C    2.767757   2.988741   2.632843   1.891324   0.000000
     6  C    1.891308   2.632843   2.988752   2.767772   1.475939
     7  H    1.091443   2.175583   2.763319   2.667524   2.922929
     8  H    1.086086   2.171939   3.376228   3.849217   3.630797
     9  H    2.190792   1.087014   2.133058   3.416755   3.883519
    10  H    3.416757   2.133058   1.087014   2.190791   3.378512
    11  H    2.667523   2.763317   2.175584   1.091442   2.320137
    12  H    3.849216   3.376227   2.171939   1.086085   2.430618
    13  H    3.488939   3.899586   3.448552   2.325604   1.087564
    14  H    3.494726   3.355727   2.820729   2.338587   1.088034
    15  H    2.325599   3.448557   3.899594   3.488946   2.188914
    16  H    2.338578   2.820744   3.355753   3.494753   2.186702
                    6          7          8          9         10
     6  C    0.000000
     7  H    2.320128   0.000000
     8  H    2.430604   1.800480   0.000000
     9  H    3.378512   3.063764   2.469951   0.000000
    10  H    3.883531   3.835037   4.283482   2.484806   0.000000
    11  H    2.922932   2.141354   3.714353   3.835036   3.063766
    12  H    3.630811   3.714354   4.928977   4.283482   2.469954
    13  H    2.188915   3.337196   4.339733   4.869234   4.199322
    14  H    2.186702   3.850076   4.310956   4.072742   3.245023
    15  H    1.087565   2.429280   2.604294   4.199329   4.869243
    16  H    1.088035   3.098903   2.563047   3.245038   4.072772
                   11         12         13         14         15
    11  H    0.000000
    12  H    1.800481   0.000000
    13  H    2.429288   2.604294   0.000000
    14  H    3.098909   2.563062   1.807072   0.000000
    15  H    3.337191   4.339736   2.444919   3.037337   0.000000
    16  H    3.850087   4.310982   3.037334   2.437666   1.807071
                   16
    16  H    0.000000
 Symmetry turned off by external request.
 Stoichiometry    C6H10
 Framework group  C1[X(C6H10)]
 Deg. of freedom    42
 Full point group                 C1      NOp   1
 Rotational constants (GHZ):           4.4807578           4.0933525           2.5516182
 Standard basis: VSTO-6G (5D, 7F)
    34 basis functions,   204 primitive gaussians,    34 cartesian basis functions
    17 alpha electrons       17 beta electrons
       nuclear repulsion energy       144.7267456681 Hartrees.
 Integral buffers will be    131072 words long.
 Regular integral format.
 Two-electron integral symmetry is turned off.
 Do NDO integrals.
 One-electron integrals computed using PRISM.
 NBasis=    34 RedAO= F EigKep=  0.00D+00  NBF=    34
 NBsUse=    34 1.00D-04 EigRej=  0.00D+00 NBFU=    34
 Initial guess from the checkpoint file:  "C:\Users\al6323\OneDrive - Imperial College London\Desktop\TSR20251111\TS_guess_opt_TS(Berny)_IRC.chk"
 B after Tr=     0.000000    0.000163   -0.000074
         Rot=    1.000000   -0.000123    0.000000   -0.000001 Ang=  -0.01 deg.
 Keep J ints in memory in canonical form, NReq=862294.
 Overlap will be assumed to be unity.
 Requested convergence on RMS density matrix=1.00D-08 within  32 cycles.
 Requested convergence on MAX density matrix=1.00D-06.
 Requested convergence on             energy=1.00D-06.
 No special actions if energy rises.
 SCF Done:  E(RPM6) =  0.712738694891E-01 A.U. after   11 cycles
            NFock= 10  Conv=0.65D-08     -V/T= 1.0014
 QCSCF skips out because SCF is already converged.
 Range of M.O.s used for correlation:     1    34
 NBasis=    34 NAE=    17 NBE=    17 NFC=     0 NFV=     0
 NROrb=     34 NOA=    17 NOB=    17 NVA=    17 NVB=    17
 Symmetrizing basis deriv contribution to polar:
 IMax=3 JMax=2 DiffMx= 0.00D+00
 G2DrvN: will do    17 centers at a time, making    1 passes.
 Calling FoFCou, ICntrl=  3107 FMM=F I1Cent=   0 AccDes= 0.00D+00.
 End of G2Drv F.D. properties file   721 does not exist.
 End of G2Drv F.D. properties file   722 does not exist.
 End of G2Drv F.D. properties file   788 does not exist.
          IDoAtm=1111111111111111
          Differentiating once with respect to nuclear coordinates.
          Electric field/nuclear overlap derivatives assumed to be zero.
 Keep J ints in memory in canonical form, NReq=863961.
          There are    51 degrees of freedom in the 1st order CPHF.  IDoFFX=5 NUNeed=    51.
 LinEq1:  Iter=  0 NonCon=    48 RMS=1.48D-02 Max=1.04D-01 NDo=    48
 AX will form    51 AO Fock derivatives at one time.
 LinEq1:  Iter=  1 NonCon=    48 RMS=1.79D-03 Max=1.87D-02 NDo=    51
 LinEq1:  Iter=  2 NonCon=    48 RMS=2.59D-04 Max=2.42D-03 NDo=    51
 LinEq1:  Iter=  3 NonCon=    48 RMS=4.71D-05 Max=4.47D-04 NDo=    51
 LinEq1:  Iter=  4 NonCon=    48 RMS=1.04D-05 Max=1.07D-04 NDo=    51
 LinEq1:  Iter=  5 NonCon=    48 RMS=1.97D-06 Max=1.52D-05 NDo=    51
 LinEq1:  Iter=  6 NonCon=    48 RMS=2.56D-07 Max=1.84D-06 NDo=    51
 LinEq1:  Iter=  7 NonCon=    29 RMS=3.99D-08 Max=2.75D-07 NDo=    51
 LinEq1:  Iter=  8 NonCon=     0 RMS=5.31D-09 Max=2.96D-08 NDo=    29
 Linear equations converged to 1.000D-08 1.000D-07 after     8 iterations.
 End of Minotr F.D. properties file   721 does not exist.
 End of Minotr F.D. properties file   722 does not exist.
 End of Minotr F.D. properties file   788 does not exist.
 Calling FoFJK, ICntrl=    100127 FMM=F ISym2X=0 I1Cent= 0 IOpClX= 0 NMat=1 NMatS=1 NMatT=0.
 -------------------------------------------------------------------
 Center     Atomic                   Forces (Hartrees/Bohr)
 Number     Number              X              Y              Z
 -------------------------------------------------------------------
      1        6           0.017414793    0.013247385    0.063300977
      2        6           0.007915197   -0.007374098    0.001122926
      3        6          -0.007936902   -0.007362642    0.001044383
      4        6          -0.018019176    0.013272943    0.063127199
      5        6           0.023922009   -0.006902226   -0.063528862
      6        6          -0.023303767   -0.006868436   -0.063761741
      7        1          -0.001551793   -0.000930931   -0.003147133
      8        1           0.000927789   -0.000112629    0.001850866
      9        1          -0.001173436    0.001585485   -0.003614994
     10        1           0.001211277    0.001583741   -0.003603342
     11        1           0.001581335   -0.000933181   -0.003131660
     12        1          -0.000946207   -0.000111273    0.001841791
     13        1          -0.001668226   -0.000403528    0.002520616
     14        1          -0.001644415    0.000858918    0.001713049
     15        1           0.001642659   -0.000406026    0.002536749
     16        1           0.001628863    0.000856498    0.001729177
 -------------------------------------------------------------------
 Cartesian Forces:  Max     0.063761741 RMS     0.019695661
 IRC-IRC-IRC-IRC-IRC-IRC-IRC-IRC-IRC-IRC-IRC-IRC-IRC-IRC-IRC-IRC-IRC-IRC
 Pt  6 Step number   1 out of a maximum of  20
 Modified Bulirsch-Stoer Extrapolation Cycles:
    EPS =    0.000010000000000
      PEZero:  N= 2 I= 1 D=  1.36D-03 Err=  2.68D-05
      PEZero:  N= 3 I= 2 D=  1.36D-03 Err=  1.78D-05
      PEZero:  N= 3 I= 1 D=  2.72D-03 Err=  7.87D-08
 Maximum DWI energy   std dev =  0.000010188 at pt    45
[...]
    11  H    3.574708   2.235491   3.848639   3.859438   3.098007
    12  H    4.649392   3.848639   5.169385   4.289323   2.479518
    13  H    2.125794   4.318313   5.564651   5.881296   5.348761
    14  H    2.123634   3.670453   4.724025   4.386425   3.644695
    15  H    1.081057   3.606278   4.232913   5.348671   5.881384
    16  H    1.082934   2.802129   3.052900   3.644586   4.386524
                   11         12         13         14         15
    11  H    0.000000
    12  H    1.804414   0.000000
    13  H    3.606167   4.232946   0.000000
    14  H    2.802032   3.052957   1.806300   0.000000
    15  H    4.318191   5.564663   2.524036   3.099725   0.000000
    16  H    3.670341   4.724046   3.099725   2.514059   1.806300
                   16
    16  H    0.000000
 Symmetry turned off by external request.
 Stoichiometry    C6H10
 Framework group  C1[X(C6H10)]
 Deg. of freedom    42
 Full point group                 C1      NOp   1
 Rotational constants (GHZ):           4.1260437           1.9641900           1.4820103
 Standard basis: VSTO-6G (5D, 7F)
    34 basis functions,   204 primitive gaussians,    34 cartesian basis functions
    17 alpha electrons       17 beta electrons
       nuclear repulsion energy       132.9668755094 Hartrees.
 Integral buffers will be    131072 words long.
 Regular integral format.
 Two-electron integral symmetry is turned off.
 Do NDO integrals.
 One-electron integrals computed using PRISM.
 NBasis=    34 RedAO= F EigKep=  0.00D+00  NBF=    34
 NBsUse=    34 1.00D-04 EigRej=  0.00D+00 NBFU=    34
 Initial guess from the checkpoint file:  "C:\Users\al6323\OneDrive - Imperial College London\Desktop\TSR20251111\TS_guess_opt_TS(Berny)_IRC.chk"
 B after Tr=     0.000000   -0.000002   -0.000012
         Rot=    1.000000   -0.000006    0.000000    0.000000 Ang=   0.00 deg.
 Keep J ints in memory in canonical form, NReq=862294.
 Overlap will be assumed to be unity.
 Requested convergence on RMS density matrix=1.00D-08 within  32 cycles.
 Requested convergence on MAX density matrix=1.00D-06.
 Requested convergence on             energy=1.00D-06.
 No special actions if energy rises.
 SCF Done:  E(RPM6) =  0.713761629771E-01 A.U. after    9 cycles
            NFock=  8  Conv=0.41D-08     -V/T= 1.0014
 QCSCF skips out because SCF is already converged.
 Range of M.O.s used for correlation:     1    34
 NBasis=    34 NAE=    17 NBE=    17 NFC=     0 NFV=     0
 NROrb=     34 NOA=    17 NOB=    17 NVA=    17 NVB=    17
 Symmetrizing basis deriv contribution to polar:
 IMax=3 JMax=2 DiffMx= 0.00D+00
 Calling FoFJK, ICntrl=      2127 FMM=F ISym2X=0 I1Cent= 0 IOpClX= 0 NMat=1 NMatS=1 NMatT=0.
 -------------------------------------------------------------------
 Center     Atomic                   Forces (Hartrees/Bohr)
 Number     Number              X              Y              Z
 -------------------------------------------------------------------
      1        6           0.000000471   -0.000057010   -0.000081502
      2        6           0.000000522   -0.000048268   -0.000134058
      3        6           0.000000730   -0.000048231   -0.000134233
      4        6           0.000000239   -0.000057013   -0.000081408
      5        6           0.000000092    0.000101886    0.000206138
      6        6          -0.000001965    0.000101921    0.000206062
      7        1          -0.000000075   -0.000005382   -0.000003325
      8        1           0.000000023   -0.000004811   -0.000006902
      9        1           0.000000063   -0.000003388   -0.000015117
     10        1           0.000000082   -0.000003377   -0.000015175
     11        1           0.000000098   -0.000005391   -0.000003272
     12        1           0.000000038   -0.000004806   -0.000006917
     13        1          -0.000001041   -0.000013987    0.000047438
     14        1          -0.000000702    0.000030918   -0.000012580
     15        1           0.000000552   -0.000013983    0.000047436
     16        1           0.000000873    0.000030922   -0.000012583
 -------------------------------------------------------------------
 Cartesian Forces:  Max     0.000206138 RMS     0.000060203
 IRC-IRC-IRC-IRC-IRC-IRC-IRC-IRC-IRC-IRC-IRC-IRC-IRC-IRC-IRC-IRC-IRC-IRC
 Error in corrector energy =           0.0000000111
 Magnitude of corrector gradient =     0.0004178882
 Magnitude of analytic gradient =      0.0004170976
 Magnitude of difference =             0.0000051446
 Angle between gradients (degrees)=    0.6976
 Pt 66 Step number   2 out of a maximum of  20
 Modified Bulirsch-Stoer Extrapolation Cycles:
    EPS =    0.000010000000000
      PEZero:  N= 2 I= 1 D=  1.36D-03 Err=  1.78D-02
      PEZero:  N= 3 I= 2 D=  1.36D-03 Err=  2.52D-02
      PEZero:  N= 3 I= 1 D=  2.72D-03 Err=  2.00D-02
      PEZero:  N= 4 I= 3 D=  6.80D-04 Err=  3.95D-02
      PEZero:  N= 4 I= 2 D=  2.04D-03 Err=  2.75D-02
      PEZero:  N= 4 I= 1 D=  3.40D-03 Err=  2.10D-02
      PEZero:  N= 5 I= 4 D=  6.80D-04 Err=  5.34D-02
      PEZero:  N= 5 I= 3 D=  1.36D-03 Err=  4.05D-02
      PEZero:  N= 5 I= 2 D=  2.72D-03 Err=  2.68D-02
      PEZero:  N= 5 I= 1 D=  4.08D-03 Err=  1.98D-02
      PEZero:  N= 6 I= 5 D=  3.40D-04 Err=  6.17D-02
      PEZero:  N= 6 I= 4 D=  1.02D-03 Err=  2.89D-02
      PEZero:  N= 6 I= 3 D=  1.70D-03 Err=  1.04D-02
      PEZero:  N= 6 I= 2 D=  3.06D-03 Err=  1.17D-03
      PEZero:  N= 6 I= 1 D=  4.42D-03 Err=  4.28D-03
      PEZero:  N= 7 I= 6 D=  3.40D-04 Err=  4.20D-06
      PEZero:  N= 7 I= 5 D=  6.80D-04 Err=  6.17D-02
 Maximum DWI energy   std dev =  0.000000430 at pt   168
 Maximum DWI gradient std dev =  0.867931289 at pt   140
 CORRECTOR INTEGRATION CONVERGENCE:
   Recorrection delta-x convergence threshold:    0.010000
   Delta-x Convergence Met
 Point Number:  44          Path Number:   2
   CHANGE IN THE REACTION COORDINATE =    0.26116
   NET REACTION COORDINATE UP TO THIS POINT =   11.49402
  # OF POINTS ALONG THE PATH =  66
  # OF STEPS =   2

 PES minimum detected on this side of the pathway.
    Magnitude of the gradient =      0.0001469
 Calculation of REVERSE path complete.
 Reaction path calculation complete.
 
 Energies reported relative to the TS energy of           0.112860
 --------------------------------------------------------------------------
    Summary of reaction path following
 --------------------------------------------------------------------------
                        Energy    RxCoord
   1                   -0.04148 -11.49402
   2                   -0.04144 -11.23286
   3                   -0.04140 -10.97175
   4                   -0.04135 -10.71070
   5                   -0.04129 -10.44970
   6                   -0.04123 -10.18868
   7                   -0.04116  -9.92761
   8                   -0.04109  -9.66645
   9                   -0.04102  -9.40523
  10                   -0.04094  -9.14399
  11                   -0.04086  -8.88278
  12                   -0.04078  -8.62161
  13                   -0.04069  -8.36049
  14                   -0.04060  -8.09937
  15                   -0.04049  -7.83824
  16                   -0.04037  -7.57707
  17                   -0.04024  -7.31586
  18                   -0.04008  -7.05462
  19                   -0.03989  -6.79335
  20                   -0.03967  -6.53207
  21                   -0.03941  -6.27077
  22                   -0.03910  -6.00947
  23                   -0.03874  -5.74817
  24                   -0.03832  -5.48686
  25                   -0.03782  -5.22556
  26                   -0.03725  -4.96426
  27                   -0.03657  -4.70296
  28                   -0.03578  -4.44166
  29                   -0.03487  -4.18035
  30                   -0.03382  -3.91904
  31                   -0.03261  -3.65773
  32                   -0.03123  -3.39642
  33                   -0.02966  -3.13510
  34                   -0.02788  -2.87378
  35                   -0.02590  -2.61246
  36                   -0.02369  -2.35114
  37                   -0.02125  -2.08983
  38                   -0.01858  -1.82853
  39                   -0.01570  -1.56724
  40                   -0.01264  -1.30597
  41                   -0.00946  -1.04473
  42                   -0.00628  -0.78351
  43                   -0.00332  -0.52233
  44                   -0.00099  -0.26116
  45                    0.00000   0.00000
  46                   -0.00131   0.26130
  47                   -0.00557   0.52257
  48                   -0.01249   0.78385
  49                   -0.02126   1.04512
  50                   -0.03114   1.30639
  51                   -0.04159   1.56767
  52                   -0.05222   1.82894
  53                   -0.06274   2.09023
  54                   -0.07290   2.35152
  55                   -0.08244   2.61282
  56                   -0.09109   2.87411
  57                   -0.09858   3.13540
  58                   -0.10461   3.39663
  59                   -0.10886   3.65758
  60                   -0.11120   3.91550
  61                   -0.11226   4.16587
  62                   -0.11300   4.42651
  63                   -0.11358   4.68779
  64                   -0.11401   4.94911
  65                   -0.11432   5.21044
  66                   -0.11452   5.47179
  67                   -0.11462   5.73315
 --------------------------------------------------------------------------
 
 Total number of points:                   66
 Total number of gradient calculations:    77
 Total number of Hessian calculations:     67
 IRC-IRC-IRC-IRC-IRC-IRC-IRC-IRC-IRC-IRC-IRC-IRC-IRC-IRC-IRC-IRC-IRC-IRC
                          Input orientation:                          
 ---------------------------------------------------------------------
 Center     Atomic      Atomic             Coordinates (Angstroms)
 Number     Number       Type             X           Y           Z
 ---------------------------------------------------------------------
      1          6           0       -1.500004    0.123999   -1.059816
      2          6           0       -0.728796   -0.952459   -1.232284
      3          6           0        0.739521   -0.953521   -1.225085
      4          6           0        1.510557    0.121806   -1.044959
      5          6           0        0.653418    0.763340    2.196767
      6          6           0       -0.673930    0.764323    2.190215
      7          1           0       -1.112553    1.119448   -0.890942
      8          1           0       -2.579363    0.084823   -1.075141
      9          1           0       -1.179421   -1.936065   -1.397911
     10          1           0        1.190326   -1.937765   -1.386377
     11          1           0        1.122909    1.117800   -0.879795
     12          1           0        2.589957    0.081069   -1.049699
     13          1           0        1.249816    1.509631    2.702775
     14          1           0        1.248709    0.012617    1.692000
     15          1           0       -1.274189    1.511499    2.690316
     16          1           0       -1.265319    0.014478    1.679589
 ---------------------------------------------------------------------
                    Distance matrix (angstroms):
                    1          2          3          4          5
     1  C    0.000000
     2  C    1.335391   0.000000
     3  C    2.490750   1.468335   0.000000
     4  C    3.010599   2.490750   1.335391   0.000000
     5  C    3.956175   4.075889   3.829373   3.413948   0.000000
     6  C    3.413959   3.829341   4.075918   3.956155   1.327365
     7  H    1.081459   2.134616   2.799827   2.810644   3.574831
     8  H    1.080179   2.127263   3.480753   4.090199   4.649370
     9  H    2.112095   1.094521   2.162776   3.405200   4.854668
    10  H    3.405200   2.162776   1.094521   2.112095   4.519199
    11  H    2.810644   2.799828   2.134616   1.081460   3.132299
    12  H    4.090199   3.480753   2.127263   1.080179   3.841253
    13  H    4.861952   5.045937   4.664290   4.004941   1.081057
    14  H    3.891056   3.659690   3.114816   2.751623   1.082934
    15  H    4.004952   4.664261   5.045961   4.861927   2.125794
    16  H    2.751620   3.114776   3.659718   3.891037   2.123634
                    6          7          8          9         10
     6  C    0.000000
     7  H    3.132416   0.000000
     8  H    3.841216   1.804414   0.000000
     9  H    4.519100   3.098007   2.479518   0.000000
    10  H    4.854765   3.859438   4.289322   2.369775   0.000000
    11  H    3.574708   2.235491   3.848639   3.859438   3.098007
    12  H    4.649392   3.848639   5.169385   4.289323   2.479518
    13  H    2.125794   4.318313   5.564651   5.881296   5.348761
    14  H    2.123634   3.670453   4.724025   4.386425   3.644695
    15  H    1.081057   3.606278   4.232913   5.348671   5.881384
    16  H    1.082934   2.802129   3.052900   3.644586   4.386524
                   11         12         13         14         15
    11  H    0.000000
    12  H    1.804414   0.000000
    13  H    3.606167   4.232946   0.000000
    14  H    2.802032   3.052957   1.806300   0.000000
    15  H    4.318191   5.564663   2.524036   3.099725   0.000000
    16  H    3.670341   4.724046   3.099725   2.514059   1.806300
                   16
    16  H    0.000000
 Symmetry turned off by external request.
 Stoichiometry    C6H10
 Framework group  C1[X(C6H10)]
 Deg. of freedom    42
 Full point group                 C1      NOp   1
 Rotational constants (GHZ):           4.1260437           1.9641900           1.4820103

 **********************************************************************

            Population analysis using the SCF Density.

 **********************************************************************

 Alpha  occ. eigenvalues --   -1.03532  -0.98182  -0.94047  -0.80943  -0.75226
 Alpha  occ. eigenvalues --   -0.67607  -0.62069  -0.58440  -0.55038  -0.52669
 Alpha  occ. eigenvalues --   -0.52076  -0.45567  -0.43938  -0.43829  -0.43670
 Alpha  occ. eigenvalues --   -0.38750  -0.35091
 Alpha virt. eigenvalues --    0.01104   0.04679   0.07396   0.16149   0.19006
 Alpha virt. eigenvalues --    0.20563   0.21364   0.21535   0.21586   0.21613
 Alpha virt. eigenvalues --    0.23047   0.23256   0.23402   0.23631   0.24367
 Alpha virt. eigenvalues --    0.24369   0.24551
          Condensed to atoms (all electrons):
               1          2          3          4          5          6
     1  C    4.324446   0.000000   0.000000   0.000000   0.000000   0.000000
     2  C    0.000000   4.114546   0.000000   0.000000   0.000000   0.000000
     3  C    0.000000   0.000000   4.114546   0.000000   0.000000   0.000000
     4  C    0.000000   0.000000   0.000000   4.324446   0.000000   0.000000
     5  C    0.000000   0.000000   0.000000   0.000000   4.288581   0.000000
     6  C    0.000000   0.000000   0.000000   0.000000   0.000000   4.288580
     7  H    0.000000   0.000000   0.000000   0.000000   0.000000   0.000000
     8  H    0.000000   0.000000   0.000000   0.000000   0.000000   0.000000
     9  H    0.000000   0.000000   0.000000   0.000000   0.000000   0.000000
    10  H    0.000000   0.000000   0.000000   0.000000   0.000000   0.000000
    11  H    0.000000   0.000000   0.000000   0.000000   0.000000   0.000000
    12  H    0.000000   0.000000   0.000000   0.000000   0.000000   0.000000
    13  H    0.000000   0.000000   0.000000   0.000000   0.000000   0.000000
    14  H    0.000000   0.000000   0.000000   0.000000   0.000000   0.000000
    15  H    0.000000   0.000000   0.000000   0.000000   0.000000   0.000000
    16  H    0.000000   0.000000   0.000000   0.000000   0.000000   0.000000
               7          8          9         10         11         12
     1  C    0.000000   0.000000   0.000000   0.000000   0.000000   0.000000
     2  C    0.000000   0.000000   0.000000   0.000000   0.000000   0.000000
     3  C    0.000000   0.000000   0.000000   0.000000   0.000000   0.000000
     4  C    0.000000   0.000000   0.000000   0.000000   0.000000   0.000000
     5  C    0.000000   0.000000   0.000000   0.000000   0.000000   0.000000
     6  C    0.000000   0.000000   0.000000   0.000000   0.000000   0.000000
     7  H    0.845153   0.000000   0.000000   0.000000   0.000000   0.000000
     8  H    0.000000   0.852576   0.000000   0.000000   0.000000   0.000000
     9  H    0.000000   0.000000   0.862933   0.000000   0.000000   0.000000
    10  H    0.000000   0.000000   0.000000   0.862933   0.000000   0.000000
    11  H    0.000000   0.000000   0.000000   0.000000   0.845152   0.000000
    12  H    0.000000   0.000000   0.000000   0.000000   0.000000   0.852576
    13  H    0.000000   0.000000   0.000000   0.000000   0.000000   0.000000
    14  H    0.000000   0.000000   0.000000   0.000000   0.000000   0.000000
    15  H    0.000000   0.000000   0.000000   0.000000   0.000000   0.000000
    16  H    0.000000   0.000000   0.000000   0.000000   0.000000   0.000000
              13         14         15         16
     1  C    0.000000   0.000000   0.000000   0.000000
     2  C    0.000000   0.000000   0.000000   0.000000
     3  C    0.000000   0.000000   0.000000   0.000000
     4  C    0.000000   0.000000   0.000000   0.000000
     5  C    0.000000   0.000000   0.000000   0.000000
     6  C    0.000000   0.000000   0.000000   0.000000
     7  H    0.000000   0.000000   0.000000   0.000000
     8  H    0.000000   0.000000   0.000000   0.000000
     9  H    0.000000   0.000000   0.000000   0.000000
    10  H    0.000000   0.000000   0.000000   0.000000
    11  H    0.000000   0.000000   0.000000   0.000000
    12  H    0.000000   0.000000   0.000000   0.000000
    13  H    0.859952   0.000000   0.000000   0.000000
    14  H    0.000000   0.851814   0.000000   0.000000
    15  H    0.000000   0.000000   0.859952   0.000000
    16  H    0.000000   0.000000   0.000000   0.851814
 Mulliken charges:
               1
     1  C   -0.324446
     2  C   -0.114546
     3  C   -0.114546
     4  C   -0.324446
     5  C   -0.288581
     6  C   -0.288580
     7  H    0.154847
     8  H    0.147424
     9  H    0.137067
    10  H    0.137067
    11  H    0.154848
    12  H    0.147424
    13  H    0.140048
    14  H    0.148186
    15  H    0.140048
    16  H    0.148186
 Sum of Mulliken charges =   0.00000
 Mulliken charges with hydrogens summed into heavy atoms:
               1
     1  C   -0.022175
     2  C    0.022521
     3  C    0.022521
     4  C   -0.022175
     5  C   -0.000347
     6  C   -0.000346
 APT charges:
               1
     1  C   -0.324446
     2  C   -0.114546
     3  C   -0.114546
     4  C   -0.324446
     5  C   -0.288581
     6  C   -0.288580
     7  H    0.154847
     8  H    0.147424
     9  H    0.137067
    10  H    0.137067
    11  H    0.154848
    12  H    0.147424
    13  H    0.140048
    14  H    0.148186
    15  H    0.140048
    16  H    0.148186
 Sum of APT charges =   0.00000
 APT charges with hydrogens summed into heavy atoms:
               1
     1  C   -0.022175
     2  C    0.022521
     3  C    0.022521
     4  C   -0.022175
     5  C   -0.000347
     6  C   -0.000346
 Charge=              0.0000 electrons
 Dipole moment (field-independent basis, Debye):
    X=              0.0002    Y=             -0.0764    Z=             -0.0564  Tot=              0.0949
 N-N= 1.329668755094D+02 E-N=-1.942391154075D+02  KE=-5.053841558080D+01
  Exact polarizability:       0.000       0.000       0.000       0.000       0.000       0.000
 Approx polarizability:      52.732      -0.047      36.933       0.221       7.063       9.082
