 Default is to use a total of   8 processors:
                                8 via shared-memory
                                1 via Linda
 Entering Link 1 = C:\G16W\l1.exe PID=     20304.
  
 Copyright (c) 1988-2019, Gaussian, Inc.  All Rights Reserved.
  
 This is part of the Gaussian(R) 16 program.  It is based on
 the Gaussian(R) 09 system (copyright 2009, Gaussian, Inc.),
 the Gaussian(R) 03 system (copyright 2003, Gaussian, Inc.),
 the Gaussian(R) 98 system (copyright 1998, Gaussian, Inc.),
 the Gaussian(R) 94 system (copyright 1995, Gaussian, Inc.),
 the Gaussian 92(TM) system (copyright 1992, Gaussian, Inc.),
 the Gaussian 90(TM) system (copyright 1990, Gaussian, Inc.),
 the Gaussian 88(TM) system (copyright 1988, Gaussian, Inc.),
 the Gaussian 86(TM) system (copyright 1986, Carnegie Mellon
 University), and the Gaussian 82(TM) system (copyright 1983,
 Carnegie Mellon University). Gaussian is a federally registered
 trademark of Gaussian, Inc.
  
 This software contains proprietary and confidential information,
 including trade secrets, belonging to Gaussian, Inc.
  
 This software is provided under written license and may be
 used, copied, transmitted, or stored only in accord with that
 written license.
  
 The following legend is applicable only to US Government
 contracts under FAR:
  
                    RESTRICTED RIGHTS LEGEND
  
 Use, reproduction and disclosure by the US Government is
 subject to restrictions as set forth in subparagraphs (a)
 and (c) of the Commercial Computer Software - Restricted
 Rights clause in FAR 52.227-19.
  
 Gaussian, Inc.
 340 Quinnipiac St., Bldg. 40, Wallingford CT 06492
  
  
 ---------------------------------------------------------------
 Warning -- This program may not be used in any manner that
 competes with the business of Gaussian, Inc. or will provide
 assistance to any competitor of Gaussian, Inc.  The licensee
 of this program is prohibited from giving any competitor of
 Gaussian, Inc. access to this program.  By using this program,
 the user acknowledges that Gaussian, Inc. is engaged in the
 business of creating and licensing software in the field of
 computational chemistry and represents and warrants to the
 licensee that it is not a competitor of Gaussian, Inc. and that
 it will not use this program in any manner prohibited above.
 ---------------------------------------------------------------
  

 Cite this work as:
 Gaussian 16, Revision C.01,
 M. J. Frisch, G. W. Trucks, H. B. Schlegel, G. E. Scuseria, 
 M. A. Robb, J. R. Cheeseman, G. Scalmani, V. Barone, 
 G. A. Petersson, H. Nakatsuji, X. Li, M. Caricato, A. V. Marenich, 
 J. Bloino, B. G. Janesko, R. Gomperts, B. Mennucci, H. P. Hratchian, 
 J. V. Ortiz, A. F. Izmaylov, J. L. Sonnenberg, D. Williams-Young, 
 F. Ding, F. Lipparini, F. Egidi, J. Goings, B. Peng, A. Petrone, 
 T. Henderson, D. Ranasinghe, V. G. Zakrzewski, J. Gao, N. Rega, 
 G. Zheng, W. Liang, M. Hada, M. Ehara, K. Toyota, R. Fukuda, 
 J. Hasegawa, M. Ishida, T. Nakajima, Y. Honda, O. Kitao, H. Nakai, 
 T. Vreven, K. Throssell, J. A. Montgomery, Jr., J. E. Peralta, 
 F. Ogliaro, M. J. Bearpark, J. J. Heyd, E. N. Brothers, K. N. Kudin, 
 V. N. Staroverov, T. A. Keith, R. Kobayashi, J. Normand, 
 K. Raghavachari, A. P. Rendell, J. C. Burant, S. S. Iyengar, 
 J. Tomasi, M. Cossi, J. M. Millam, M. Klene, C. Adamo, R. Cammi, 
 J. W. Ochterski, R. L. Martin, K. Morokuma, O. Farkas, 
 J. B. Foresman, and D. J. Fox, Gaussian, Inc., Wallingford CT, 2019.
 
 ******************************************
 Gaussian 16:  EM64W-G16RevC.01 30-May-2019
                11-Nov-2025 
 ******************************************
 %chk=C:\Users\al6323\OneDrive - Imperial College London\Desktop\TSR20251111\TS_g
 uess_opt_TS(Berny).chk
 Default route: MaxDisk=10GB
 ----------------------------------------------------------------------
 # opt=(calcfc,tight,ts,maxcycles=200,noeigen) pm6 nosymm scf=(xqc,tigh
 t)
 ----------------------------------------------------------------------
 1/5=1,6=200,7=10,10=4,11=1,18=20,26=1,38=1/1,3;
 2/9=110,12=2,15=1,17=6,18=5,40=1/2;
 3/5=2,25=1,41=3900000,71=2,140=1/1,2,3;
 4/35=1/1;
 5/5=2,8=3,13=1,32=2,35=1,38=5/2,8;
 8/6=4,10=90,11=11/1;
 11/6=1,8=1,9=11,15=111,16=1,31=1/1,2,10;
 10/6=1,13=1,31=1/2;
 6/7=2,8=2,9=2,10=2,28=1/1;
 7/10=1,25=1,30=1/1,2,3,16;
 1/5=1,6=200,7=10,10=4,11=1,18=20,26=1/3(2);
 2/9=110,15=1/2;
 99//99;
 2/9=110,15=1/2;
 3/5=2,25=1,41=3900000,71=1,135=20/1,2,3;
 4/5=5,16=3,35=1/1;
 5/5=2,8=3,13=1,32=2,35=1,38=5/2,8;
 7/30=1/1,2,3,16;
 1/5=1,6=200,7=10,11=1,18=20,26=1/3(-5);
 2/9=110,15=1/2;
 6/7=2,8=2,9=2,10=2,19=2,28=1/1;
 99/9=1/99;
 ----------
 TS (Berny)
 ----------
 Symbolic Z-matrix:
 Charge =  0 Multiplicity = 1
 C                    -0.69278   0.94341   0.06193 
 C                     0.01762  -0.1648   -0.256 
 C                     1.46128  -0.16585  -0.24888 
 C                     2.17012   0.94132   0.07605 
 C                     1.40522   1.21109   2.14786 
 C                     0.05204   1.21211   2.14117 
 H                    -0.29615   1.94875  -0.03048 
 H                    -1.76597   0.91817   0.19585 
 H                    -0.47293  -1.13131  -0.37434 
 H                     1.95156  -1.13308  -0.3624 
 H                     1.77588   1.94724  -0.02026 
 H                     3.24189   0.91453   0.22054 
 H                     1.98427   2.12547   2.1538 
 H                     1.9782    0.32285   2.38306 
 H                    -0.52566   2.12737   2.1414 
 H                    -0.52458   0.32474   2.37071 
 
 Add virtual bond connecting atoms C5         and C4         Dist= 4.20D+00.
 Add virtual bond connecting atoms C5         and H11        Dist= 4.38D+00.
 Add virtual bond connecting atoms C6         and C1         Dist= 4.20D+00.
 Add virtual bond connecting atoms C6         and H7         Dist= 4.38D+00.
 Add virtual bond connecting atoms H13        and H11        Dist= 4.14D+00.

 GradGradGradGradGradGradGradGradGradGradGradGradGradGradGradGradGradGrad
 Berny optimization.
 Initialization pass.
                           ----------------------------
                           !    Initial Parameters    !
                           ! (Angstroms and Degrees)  !
 --------------------------                            --------------------------
 ! Name  Definition              Value          Derivative Info.                !
 --------------------------------------------------------------------------------
 ! R1    R(1,2)                  1.3542         calculate D2E/DX2 analytically  !
 ! R2    R(1,6)                  2.2249         calculate D2E/DX2 analytically  !
 ! R3    R(1,7)                  1.0847         calculate D2E/DX2 analytically  !
 ! R4    R(1,8)                  1.0818         calculate D2E/DX2 analytically  !
 ! R5    R(2,3)                  1.4437         calculate D2E/DX2 analytically  !
 ! R6    R(2,9)                  1.0903         calculate D2E/DX2 analytically  !
 ! R7    R(3,4)                  1.3542         calculate D2E/DX2 analytically  !
 ! R8    R(3,10)                 1.0903         calculate D2E/DX2 analytically  !
 ! R9    R(4,5)                  2.2249         calculate D2E/DX2 analytically  !
 ! R10   R(4,11)                 1.0847         calculate D2E/DX2 analytically  !
 ! R11   R(4,12)                 1.0818         calculate D2E/DX2 analytically  !
 ! R12   R(5,6)                  1.3532         calculate D2E/DX2 analytically  !
 ! R13   R(5,11)                 2.3195         calculate D2E/DX2 analytically  !
 ! R14   R(5,13)                 1.0823         calculate D2E/DX2 analytically  !
 ! R15   R(5,14)                 1.0829         calculate D2E/DX2 analytically  !
 ! R16   R(6,7)                  2.3195         calculate D2E/DX2 analytically  !
 ! R17   R(6,15)                 1.0823         calculate D2E/DX2 analytically  !
 ! R18   R(6,16)                 1.0829         calculate D2E/DX2 analytically  !
 ! R19   R(11,13)                2.1913         calculate D2E/DX2 analytically  !
 ! A1    A(2,1,6)               98.1995         calculate D2E/DX2 analytically  !
 ! A2    A(2,1,7)              123.1379         calculate D2E/DX2 analytically  !
 ! A3    A(2,1,8)              122.0314         calculate D2E/DX2 analytically  !
 ! A4    A(6,1,8)              102.6634         calculate D2E/DX2 analytically  !
 ! A5    A(7,1,8)              113.2605         calculate D2E/DX2 analytically  !
 ! A6    A(1,2,3)              121.6023         calculate D2E/DX2 analytically  !
 ! A7    A(1,2,9)              120.99           calculate D2E/DX2 analytically  !
 ! A8    A(3,2,9)              116.7305         calculate D2E/DX2 analytically  !
 ! A9    A(2,3,4)              121.6021         calculate D2E/DX2 analytically  !
 ! A10   A(2,3,10)             116.7306         calculate D2E/DX2 analytically  !
 ! A11   A(4,3,10)             120.9901         calculate D2E/DX2 analytically  !
 ! A12   A(3,4,5)               98.199          calculate D2E/DX2 analytically  !
 ! A13   A(3,4,11)             123.1378         calculate D2E/DX2 analytically  !
 ! A14   A(3,4,12)             122.0315         calculate D2E/DX2 analytically  !
 ! A15   A(5,4,12)             102.6635         calculate D2E/DX2 analytically  !
 ! A16   A(11,4,12)            113.2605         calculate D2E/DX2 analytically  !
 ! A17   A(4,5,6)              109.8328         calculate D2E/DX2 analytically  !
 ! A18   A(4,5,13)              85.6195         calculate D2E/DX2 analytically  !
 ! A19   A(4,5,14)              85.4627         calculate D2E/DX2 analytically  !
 ! A20   A(6,5,11)              98.9136         calculate D2E/DX2 analytically  !
 ! A21   A(6,5,13)             122.3026         calculate D2E/DX2 analytically  !
 ! A22   A(6,5,14)             122.0608         calculate D2E/DX2 analytically  !
 ! A23   A(11,5,14)            112.2599         calculate D2E/DX2 analytically  !
 ! A24   A(13,5,14)            114.1233         calculate D2E/DX2 analytically  !
 ! A25   A(1,6,5)              109.8332         calculate D2E/DX2 analytically  !
 ! A26   A(1,6,15)              85.6206         calculate D2E/DX2 analytically  !
 ! A27   A(1,6,16)              85.4614         calculate D2E/DX2 analytically  !
 ! A28   A(5,6,7)               98.9153         calculate D2E/DX2 analytically  !
 ! A29   A(5,6,15)             122.3022         calculate D2E/DX2 analytically  !
 ! A30   A(5,6,16)             122.0611         calculate D2E/DX2 analytically  !
 ! A31   A(7,6,15)              69.6045         calculate D2E/DX2 analytically  !
 ! A32   A(7,6,16)             112.2583         calculate D2E/DX2 analytically  !
 ! A33   A(15,6,16)            114.1234         calculate D2E/DX2 analytically  !
 ! A34   A(4,11,13)             87.2935         calculate D2E/DX2 analytically  !
 ! D1    D(6,1,2,3)            -60.5858         calculate D2E/DX2 analytically  !
 ! D2    D(6,1,2,9)            109.6747         calculate D2E/DX2 analytically  !
 ! D3    D(7,1,2,3)             24.0999         calculate D2E/DX2 analytically  !
 ! D4    D(7,1,2,9)           -165.6396         calculate D2E/DX2 analytically  !
 ! D5    D(8,1,2,3)           -171.1595         calculate D2E/DX2 analytically  !
 ! D6    D(8,1,2,9)             -0.899          calculate D2E/DX2 analytically  !
 ! D7    D(2,1,6,5)             52.0621         calculate D2E/DX2 analytically  !
 ! D8    D(2,1,6,15)           174.8904         calculate D2E/DX2 analytically  !
 ! D9    D(2,1,6,16)           -70.4474         calculate D2E/DX2 analytically  !
 ! D10   D(8,1,6,5)            177.6252         calculate D2E/DX2 analytically  !
 ! D11   D(8,1,6,15)           -59.5466         calculate D2E/DX2 analytically  !
 ! D12   D(8,1,6,16)            55.1157         calculate D2E/DX2 analytically  !
 ! D13   D(1,2,3,4)              0.0003         calculate D2E/DX2 analytically  !
 ! D14   D(1,2,3,10)           170.6556         calculate D2E/DX2 analytically  !
 ! D15   D(9,2,3,4)           -170.655          calculate D2E/DX2 analytically  !
 ! D16   D(9,2,3,10)             0.0003         calculate D2E/DX2 analytically  !
 ! D17   D(2,3,4,5)             60.586          calculate D2E/DX2 analytically  !
 ! D18   D(2,3,4,11)           -24.0996         calculate D2E/DX2 analytically  !
 ! D19   D(2,3,4,12)           171.1595         calculate D2E/DX2 analytically  !
 ! D20   D(10,3,4,5)          -109.6744         calculate D2E/DX2 analytically  !
 ! D21   D(10,3,4,11)          165.6399         calculate D2E/DX2 analytically  !
 ! D22   D(10,3,4,12)            0.8991         calculate D2E/DX2 analytically  !
 ! D23   D(3,4,5,6)            -52.0656         calculate D2E/DX2 analytically  !
 ! D24   D(3,4,5,13)          -174.8939         calculate D2E/DX2 analytically  !
 ! D25   D(3,4,5,14)            70.444          calculate D2E/DX2 analytically  !
 ! D26   D(12,4,5,6)          -177.6286         calculate D2E/DX2 analytically  !
 ! D27   D(12,4,5,13)           59.5432         calculate D2E/DX2 analytically  !
 ! D28   D(12,4,5,14)          -55.1189         calculate D2E/DX2 analytically  !
 ! D29   D(3,4,11,13)          117.0324         calculate D2E/DX2 analytically  !
 ! D30   D(12,4,11,13)         -77.0229         calculate D2E/DX2 analytically  !
 ! D31   D(4,5,6,1)              0.002          calculate D2E/DX2 analytically  !
 ! D32   D(4,5,6,7)            -26.135          calculate D2E/DX2 analytically  !
 ! D33   D(4,5,6,15)           -97.5827         calculate D2E/DX2 analytically  !
 ! D34   D(4,5,6,16)            97.2782         calculate D2E/DX2 analytically  !
 ! D35   D(11,5,6,1)            26.1381         calculate D2E/DX2 analytically  !
 ! D36   D(11,5,6,7)             0.0012         calculate D2E/DX2 analytically  !
 ! D37   D(11,5,6,15)          -71.4465         calculate D2E/DX2 analytically  !
 ! D38   D(11,5,6,16)          123.4143         calculate D2E/DX2 analytically  !
 ! D39   D(13,5,6,1)            97.5852         calculate D2E/DX2 analytically  !
 ! D40   D(13,5,6,7)            71.4482         calculate D2E/DX2 analytically  !
 ! D41   D(13,5,6,15)            0.0006         calculate D2E/DX2 analytically  !
 ! D42   D(13,5,6,16)         -165.1386         calculate D2E/DX2 analytically  !
 ! D43   D(14,5,6,1)           -97.2754         calculate D2E/DX2 analytically  !
 ! D44   D(14,5,6,7)          -123.4124         calculate D2E/DX2 analytically  !
 ! D45   D(14,5,6,15)          165.1399         calculate D2E/DX2 analytically  !
 ! D46   D(14,5,6,16)            0.0008         calculate D2E/DX2 analytically  !
 ! D47   D(13,5,11,4)          122.5012         calculate D2E/DX2 analytically  !
 --------------------------------------------------------------------------------
 Trust Radius=3.00D-01 FncErr=1.00D-07 GrdErr=1.00D-07 EigMax=2.50D+02 EigMin=1.00D-04
 Number of steps in this run=    100 maximum allowed number of steps=    100.
 Search for a saddle point of order  1.
 GradGradGradGradGradGradGradGradGradGradGradGradGradGradGradGradGradGrad

                          Input orientation:                          
 ---------------------------------------------------------------------
 Center     Atomic      Atomic             Coordinates (Angstroms)
 Number     Number       Type             X           Y           Z
 ---------------------------------------------------------------------
      1          6           0       -0.692781    0.943405    0.061927
      2          6           0        0.017615   -0.164798   -0.256001
      3          6           0        1.461279   -0.165850   -0.248884
      4          6           0        2.170117    0.941319    0.076046
      5          6           0        1.405220    1.211088    2.147856
      6          6           0        0.052037    1.212107    2.141174
      7          1           0       -0.296149    1.948753   -0.030484
      8          1           0       -1.765968    0.918172    0.195848
      9          1           0       -0.472932   -1.131314   -0.374344
     10          1           0        1.951561   -1.133079   -0.362396
     11          1           0        1.775876    1.947242   -0.020255
     12          1           0        3.241894    0.914527    0.220542
     13          1           0        1.984275    2.125473    2.153801
     14          1           0        1.978204    0.322848    2.383060
     15          1           0       -0.525664    2.127368    2.141398
     16          1           0       -0.524583    0.324739    2.370713
 ---------------------------------------------------------------------
                    Distance matrix (angstroms):
                    1          2          3          4          5
     1  C    0.000000
     2  C    1.354199   0.000000
     3  C    2.442750   1.443682   0.000000
     4  C    2.862934   2.442747   1.354199   0.000000
     5  C    2.970583   3.097909   2.764681   2.224913   0.000000
     6  C    2.224910   2.764688   3.097920   2.970580   1.353200
     7  H    1.084703   2.148582   2.758224   2.666222   2.860764
     8  H    1.081805   2.134985   3.433368   3.937976   3.735314
     9  H    2.131461   1.090319   2.165417   3.388859   3.921198
    10  H    3.388862   2.165418   1.090319   2.131462   3.477783
    11  H    2.666216   2.758218   2.148581   1.084703   2.319486
    12  H    3.937976   3.433367   2.134985   1.081805   2.678779
    13  H    3.597200   3.862672   3.361038   2.398713   1.082330
    14  H    3.592619   3.323605   2.726384   2.396175   1.082867
    15  H    2.398728   3.361056   3.862672   3.597169   2.137270
    16  H    2.396150   2.726399   3.323645   3.592642   2.135280
                    6          7          8          9         10
     6  C    0.000000
     7  H    2.319478   0.000000
     8  H    2.678775   1.809334   0.000000
     9  H    3.477793   3.104240   2.489469   0.000000
    10  H    3.921219   3.828846   4.282440   2.424523   0.000000
    11  H    2.860738   2.072051   3.694637   3.828841   3.104240
    12  H    3.735314   3.694643   5.007924   4.282439   2.489471
    13  H    2.137274   3.162699   4.399486   4.799587   4.117096
    14  H    2.135277   3.693432   4.376886   3.965593   3.107727
    15  H    1.082331   2.191267   2.604933   4.117128   4.799598
    16  H    1.082867   2.907808   2.573565   3.107748   3.965654
                   11         12         13         14         15
    11  H    0.000000
    12  H    1.809335   0.000000
    13  H    2.191282   2.604896   0.000000
    14  H    2.907837   2.573612   1.817155   0.000000
    15  H    3.162637   4.399450   2.509970   3.095810   0.000000
    16  H    3.693421   4.376920   3.095813   2.502818   1.817156
                   16
    16  H    0.000000
 Symmetry turned off by external request.
 Stoichiometry    C6H10
 Framework group  C1[X(C6H10)]
 Deg. of freedom    42
 Full point group                 C1      NOp   1
 Rotational constants (GHZ):           4.3230360           3.7395386           2.3864375
 Standard basis: VSTO-6G (5D, 7F)
    34 basis functions,   204 primitive gaussians,    34 cartesian basis functions
    17 alpha electrons       17 beta electrons
       nuclear repulsion energy       143.4702488912 Hartrees.
 Integral buffers will be    131072 words long.
 Regular integral format.
 Two-electron integral symmetry is turned off.
 Do NDO integrals.
 One-electron integrals computed using PRISM.
 NBasis=    34 RedAO= F EigKep=  0.00D+00  NBF=    34
 NBsUse=    34 1.00D-04 EigRej=  0.00D+00 NBFU=    34
 Simple Huckel Guess.
 Keep J ints in memory in canonical form, NReq=862358.
 Overlap will be assumed to be unity.
 Requested convergence on RMS density matrix=1.00D-08 within  32 cycles.
 Requested convergence on MAX density matrix=1.00D-06.
 Requested convergence on             energy=1.00D-06.
 No special actions if energy rises.
 SCF Done:  E(RPM6) =  0.106709650858     A.U. after   13 cycles
            NFock= 12  Conv=0.92D-08     -V/T= 1.0021
 QCSCF skips out because SCF is already converged.
 Range of M.O.s used for correlation:     1    34
 NBasis=    34 NAE=    17 NBE=    17 NFC=     0 NFV=     0
 NROrb=     34 NOA=    17 NOB=    17 NVA=    17 NVB=    17
 Symmetrizing basis deriv contribution to polar:
 IMax=3 JMax=2 DiffMx= 0.00D+00
 G2DrvN: will do    17 centers at a time, making    1 passes.
 Calling FoFCou, ICntrl=  3107 FMM=F I1Cent=   0 AccDes= 0.00D+00.
 End of G2Drv F.D. properties file   721 does not exist.
 End of G2Drv F.D. properties file   722 does not exist.
 End of G2Drv F.D. properties file   788 does not exist.
          IDoAtm=1111111111111111
          Differentiating once with respect to nuclear coordinates.
          Electric field/nuclear overlap derivatives assumed to be zero.
 Keep J ints in memory in canonical form, NReq=864025.
          There are    51 degrees of freedom in the 1st order CPHF.  IDoFFX=5 NUNeed=    51.
 LinEq1:  Iter=  0 NonCon=    48 RMS=1.60D-02 Max=1.15D-01 NDo=    48
 AX will form    51 AO Fock derivatives at one time.
 LinEq1:  Iter=  1 NonCon=    48 RMS=2.41D-03 Max=2.87D-02 NDo=    51
 LinEq1:  Iter=  2 NonCon=    48 RMS=4.15D-04 Max=4.15D-03 NDo=    51
 LinEq1:  Iter=  3 NonCon=    48 RMS=7.03D-05 Max=4.79D-04 NDo=    51
 LinEq1:  Iter=  4 NonCon=    48 RMS=1.14D-05 Max=9.99D-05 NDo=    51
 LinEq1:  Iter=  5 NonCon=    48 RMS=2.24D-06 Max=2.18D-05 NDo=    51
 LinEq1:  Iter=  6 NonCon=    48 RMS=3.39D-07 Max=2.42D-06 NDo=    51
 LinEq1:  Iter=  7 NonCon=    36 RMS=5.82D-08 Max=6.14D-07 NDo=    51
 LinEq1:  Iter=  8 NonCon=     2 RMS=1.23D-08 Max=9.91D-08 NDo=    36
 LinEq1:  Iter=  9 NonCon=     0 RMS=1.63D-09 Max=6.35D-09 NDo=     2
 Linear equations converged to 1.000D-08 1.000D-07 after     9 iterations.
 End of Minotr F.D. properties file   721 does not exist.
 End of Minotr F.D. properties file   722 does not exist.
 End of Minotr F.D. properties file   788 does not exist.

 **********************************************************************

            Population analysis using the SCF Density.

 **********************************************************************

 Alpha  occ. eigenvalues --   -1.05813  -0.95878  -0.93411  -0.80527  -0.75249
 Alpha  occ. eigenvalues --   -0.66117  -0.62073  -0.58864  -0.53768  -0.51556
 Alpha  occ. eigenvalues --   -0.50844  -0.46069  -0.45411  -0.43917  -0.42910
 Alpha  occ. eigenvalues --   -0.33765  -0.33453
 Alpha virt. eigenvalues --    0.01633   0.03937   0.09134   0.17553   0.19500
 Alpha virt. eigenvalues --    0.20988   0.21581   0.21707   0.21992   0.22134
 Alpha virt. eigenvalues --    0.22895   0.23586   0.23749   0.23854   0.24656
 Alpha virt. eigenvalues --    0.24659   0.24896
          Condensed to atoms (all electrons):
               1          2          3          4          5          6
     1  C    4.285292   0.000000   0.000000   0.000000   0.000000   0.000000
     2  C    0.000000   4.139446   0.000000   0.000000   0.000000   0.000000
     3  C    0.000000   0.000000   4.139445   0.000000   0.000000   0.000000
     4  C    0.000000   0.000000   0.000000   4.285292   0.000000   0.000000
     5  C    0.000000   0.000000   0.000000   0.000000   4.288159   0.000000
     6  C    0.000000   0.000000   0.000000   0.000000   0.000000   4.288160
     7  H    0.000000   0.000000   0.000000   0.000000   0.000000   0.000000
     8  H    0.000000   0.000000   0.000000   0.000000   0.000000   0.000000
     9  H    0.000000   0.000000   0.000000   0.000000   0.000000   0.000000
    10  H    0.000000   0.000000   0.000000   0.000000   0.000000   0.000000
    11  H    0.000000   0.000000   0.000000   0.000000   0.000000   0.000000
    12  H    0.000000   0.000000   0.000000   0.000000   0.000000   0.000000
    13  H    0.000000   0.000000   0.000000   0.000000   0.000000   0.000000
    14  H    0.000000   0.000000   0.000000   0.000000   0.000000   0.000000
    15  H    0.000000   0.000000   0.000000   0.000000   0.000000   0.000000
    16  H    0.000000   0.000000   0.000000   0.000000   0.000000   0.000000
               7          8          9         10         11         12
     1  C    0.000000   0.000000   0.000000   0.000000   0.000000   0.000000
     2  C    0.000000   0.000000   0.000000   0.000000   0.000000   0.000000
     3  C    0.000000   0.000000   0.000000   0.000000   0.000000   0.000000
     4  C    0.000000   0.000000   0.000000   0.000000   0.000000   0.000000
     5  C    0.000000   0.000000   0.000000   0.000000   0.000000   0.000000
     6  C    0.000000   0.000000   0.000000   0.000000   0.000000   0.000000
     7  H    0.846752   0.000000   0.000000   0.000000   0.000000   0.000000
     8  H    0.000000   0.861343   0.000000   0.000000   0.000000   0.000000
     9  H    0.000000   0.000000   0.863054   0.000000   0.000000   0.000000
    10  H    0.000000   0.000000   0.000000   0.863054   0.000000   0.000000
    11  H    0.000000   0.000000   0.000000   0.000000   0.846752   0.000000
    12  H    0.000000   0.000000   0.000000   0.000000   0.000000   0.861343
    13  H    0.000000   0.000000   0.000000   0.000000   0.000000   0.000000
    14  H    0.000000   0.000000   0.000000   0.000000   0.000000   0.000000
    15  H    0.000000   0.000000   0.000000   0.000000   0.000000   0.000000
    16  H    0.000000   0.000000   0.000000   0.000000   0.000000   0.000000
              13         14         15         16
     1  C    0.000000   0.000000   0.000000   0.000000
     2  C    0.000000   0.000000   0.000000   0.000000
     3  C    0.000000   0.000000   0.000000   0.000000
     4  C    0.000000   0.000000   0.000000   0.000000
     5  C    0.000000   0.000000   0.000000   0.000000
     6  C    0.000000   0.000000   0.000000   0.000000
     7  H    0.000000   0.000000   0.000000   0.000000
     8  H    0.000000   0.000000   0.000000   0.000000
     9  H    0.000000   0.000000   0.000000   0.000000
    10  H    0.000000   0.000000   0.000000   0.000000
    11  H    0.000000   0.000000   0.000000   0.000000
    12  H    0.000000   0.000000   0.000000   0.000000
    13  H    0.861527   0.000000   0.000000   0.000000
    14  H    0.000000   0.854428   0.000000   0.000000
    15  H    0.000000   0.000000   0.861527   0.000000
    16  H    0.000000   0.000000   0.000000   0.854427
 Mulliken charges:
               1
     1  C   -0.285292
     2  C   -0.139446
     3  C   -0.139445
     4  C   -0.285292
     5  C   -0.288159
     6  C   -0.288160
     7  H    0.153248
     8  H    0.138657
     9  H    0.136946
    10  H    0.136946
    11  H    0.153248
    12  H    0.138657
    13  H    0.138473
    14  H    0.145572
    15  H    0.138473
    16  H    0.145573
 Sum of Mulliken charges =   0.00000
 Mulliken charges with hydrogens summed into heavy atoms:
               1
     1  C    0.006613
     2  C   -0.002500
     3  C   -0.002499
     4  C    0.006613
     5  C   -0.004113
     6  C   -0.004115
 APT charges:
               1
     1  C   -0.285292
     2  C   -0.139446
     3  C   -0.139445
     4  C   -0.285292
     5  C   -0.288159
     6  C   -0.288160
     7  H    0.153248
     8  H    0.138657
     9  H    0.136946
    10  H    0.136946
    11  H    0.153248
    12  H    0.138657
    13  H    0.138473
    14  H    0.145572
    15  H    0.138473
    16  H    0.145573
 Sum of APT charges =   0.00000
 APT charges with hydrogens summed into heavy atoms:
               1
     1  C    0.006613
     2  C   -0.002500
     3  C   -0.002499
     4  C    0.006613
     5  C   -0.004113
     6  C   -0.004115
 Charge=              0.0000 electrons
 Dipole moment (field-independent basis, Debye):
    X=             -0.0007    Y=              0.2442    Z=              0.1837  Tot=              0.3056
 N-N= 1.434702488912D+02 E-N=-2.154179708302D+02  KE=-5.051660656291D+01
  Exact polarizability:       0.000       0.000       0.000       0.000       0.000       0.000
 Approx polarizability:      56.336      -0.070      39.924       0.169      11.765      23.886
 Calling FoFJK, ICntrl=    100127 FMM=F ISym2X=0 I1Cent= 0 IOpClX= 0 NMat=1 NMatS=1 NMatT=0.
 -------------------------------------------------------------------
 Center     Atomic                   Forces (Hartrees/Bohr)
 Number     Number              X              Y              Z
 -------------------------------------------------------------------
      1        6          -0.007244999   -0.002613840   -0.020225789
      2        6          -0.000000024    0.000000021    0.000000044
      3        6          -0.000000519    0.000000006    0.000000054
      4        6           0.007440715   -0.002624096   -0.020152956
      5        6          -0.007440392    0.002623714    0.020152994
      6        6           0.007245250    0.002613958    0.020225805
      7        1          -0.000000015   -0.000000075    0.000000031
      8        1          -0.000000015    0.000000017   -0.000000020
      9        1           0.000000011    0.000000052    0.000000025
     10        1          -0.000000016    0.000000066    0.000000017
     11        1           0.000000169   -0.000000003    0.000000063
     12        1          -0.000000057    0.000000020   -0.000000009
     13        1          -0.000000372    0.000000120   -0.000000099
     14        1           0.000000169    0.000000115   -0.000000074
     15        1           0.000000011   -0.000000067   -0.000000009
     16        1           0.000000082   -0.000000010   -0.000000076
 -------------------------------------------------------------------
 Cartesian Forces:  Max     0.020225805 RMS     0.006247654
 FormGI is forming the generalized inverse of G from B-inverse, IUseBI=4.

 GradGradGradGradGradGradGradGradGradGradGradGradGradGradGradGradGradGrad
 Berny optimization.
 Internal  Forces:  Max     0.017657298 RMS     0.002694157
 Search for a saddle point.
 Step number   1 out of a maximum of  100
 All quantities printed in internal units (Hartrees-Bohrs-Radians)
 Swapping is turned off.
 Second derivative matrix not updated -- analytic derivatives used.
 ITU=  0
     Eigenvalues ---   -0.00982   0.00164   0.00579   0.00816   0.01054
     Eigenvalues ---    0.01136   0.01303   0.01477   0.01581   0.01862
     Eigenvalues ---    0.02104   0.02237   0.02540   0.02601   0.03042
     Eigenvalues ---    0.03362   0.03924   0.04261   0.04501   0.05414
     Eigenvalues ---    0.05831   0.05993   0.06576   0.08037   0.09034
     Eigenvalues ---    0.10756   0.10983   0.12102   0.21863   0.22746
     Eigenvalues ---    0.25059   0.26096   0.26428   0.27094   0.27260
     Eigenvalues ---    0.27360   0.27684   0.27931   0.40302   0.61188
     Eigenvalues ---    0.62618   0.70531
 Eigenvectors required to have negative eigenvalues:
                          R2        R9        D3        D18       D42
   1                    0.50879   0.48252  -0.24897   0.22766  -0.19399
                          D45       D4        D21       A34       D29
   1                    0.19052  -0.18871   0.17115   0.15396  -0.14689
 RFO step:  Lambda0=1.709965366D-02 Lambda=-4.81515714D-03.
 Linear search not attempted -- option 19 set.
 Maximum step size (   0.300) exceeded in Quadratic search.
    -- Step size scaled by   0.545
 Iteration  1 RMS(Cart)=  0.02743803 RMS(Int)=  0.00151545
 Iteration  2 RMS(Cart)=  0.00117997 RMS(Int)=  0.00087862
 Iteration  3 RMS(Cart)=  0.00000172 RMS(Int)=  0.00087862
 Iteration  4 RMS(Cart)=  0.00000000 RMS(Int)=  0.00087862
 Variable       Old X    -DE/DX   Delta X   Delta X   Delta X     New X
                                 (Linear)    (Quad)   (Total)
    R1        2.55907   0.00048   0.00000   0.01984   0.01999   2.57906
    R2        4.20447   0.01766   0.00000  -0.15093  -0.15087   4.05360
    R3        2.04979  -0.00074   0.00000  -0.00008   0.00023   2.05002
    R4        2.04432   0.00000   0.00000   0.00139   0.00139   2.04571
    R5        2.72816   0.00116   0.00000  -0.02762  -0.02739   2.70078
    R6        2.06040   0.00000   0.00000  -0.00108  -0.00108   2.05932
    R7        2.55906   0.00074   0.00000   0.02028   0.02037   2.57943
    R8        2.06040   0.00000   0.00000  -0.00110  -0.00110   2.05930
    R9        4.20448   0.01588   0.00000  -0.15835  -0.15878   4.04570
   R10        2.04979   0.00007   0.00000   0.00023   0.00076   2.05055
   R11        2.04432   0.00000   0.00000   0.00140   0.00140   2.04572
   R12        2.55718  -0.00116   0.00000   0.02372   0.02349   2.58067
   R13        4.38319   0.00392   0.00000  -0.01849  -0.01842   4.36477
   R14        2.04531  -0.00127   0.00000   0.00006   0.00020   2.04551
   R15        2.04632   0.00000   0.00000   0.00133   0.00133   2.04765
   R16        4.38318   0.00366   0.00000  -0.01367  -0.01384   4.36934
   R17        2.04531   0.00000   0.00000   0.00065   0.00065   2.04596
   R18        2.04632   0.00000   0.00000   0.00103   0.00103   2.04735
   R19        4.14092   0.00204   0.00000   0.06261   0.06244   4.20336
    A1        1.71390   0.00349   0.00000   0.03656   0.03687   1.75078
    A2        2.14916   0.00088   0.00000  -0.00724  -0.00917   2.13999
    A3        2.12985  -0.00003   0.00000  -0.01109  -0.01131   2.11854
    A4        1.79181  -0.00039   0.00000  -0.01896  -0.01911   1.77271
    A5        1.97677  -0.00023   0.00000  -0.00164  -0.00326   1.97350
    A6        2.12236  -0.00005   0.00000  -0.01302  -0.01368   2.10868
    A7        2.11167   0.00001   0.00000  -0.00650  -0.00636   2.10532
    A8        2.03733   0.00012   0.00000   0.01526   0.01541   2.05274
    A9        2.12236   0.00024   0.00000  -0.01311  -0.01385   2.10851
   A10        2.03733  -0.00003   0.00000   0.01524   0.01540   2.05274
   A11        2.11168  -0.00012   0.00000  -0.00645  -0.00628   2.10540
   A12        1.71390   0.00335   0.00000   0.03931   0.03969   1.75359
   A13        2.14916   0.00040   0.00000  -0.00958  -0.01277   2.13639
   A14        2.12985  -0.00024   0.00000  -0.01277  -0.01311   2.11674
   A15        1.79182  -0.00001   0.00000  -0.01634  -0.01663   1.77519
   A16        1.97677   0.00021   0.00000   0.00081  -0.00009   1.97668
   A17        1.91694  -0.00050   0.00000   0.00350   0.00328   1.92023
   A18        1.49434  -0.00105   0.00000   0.04420   0.04437   1.53871
   A19        1.49161   0.00078   0.00000   0.06406   0.06500   1.55661
   A20        1.72637   0.00043   0.00000   0.00046   0.00120   1.72757
   A21        2.13458   0.00125   0.00000  -0.00954  -0.01044   2.12414
   A22        2.13036  -0.00077   0.00000  -0.01660  -0.01886   2.11151
   A23        1.95930  -0.00014   0.00000   0.06991   0.06986   2.02916
   A24        1.99183  -0.00029   0.00000  -0.00074  -0.00459   1.98724
   A25        1.91695  -0.00152   0.00000   0.00097   0.00055   1.91750
   A26        1.49436   0.00026   0.00000   0.04748   0.04811   1.54247
   A27        1.49158   0.00108   0.00000   0.06738   0.06839   1.55997
   A28        1.72640  -0.00012   0.00000  -0.00279  -0.00175   1.72465
   A29        2.13458   0.00079   0.00000  -0.01111  -0.01263   2.12195
   A30        2.13037  -0.00072   0.00000  -0.01641  -0.01872   2.11165
   A31        1.21483   0.00041   0.00000   0.04324   0.04300   1.25783
   A32        1.95928  -0.00015   0.00000   0.07273   0.07262   2.03190
   A33        1.99183   0.00000   0.00000  -0.00026  -0.00398   1.98785
   A34        1.52356   0.00527   0.00000  -0.06081  -0.06041   1.46314
    D1       -1.05742   0.00156   0.00000   0.02472   0.02415  -1.03327
    D2        1.91418   0.00212   0.00000  -0.00417  -0.00435   1.90983
    D3        0.42062  -0.00338   0.00000   0.12168   0.12129   0.54191
    D4       -2.89096  -0.00282   0.00000   0.09279   0.09278  -2.79818
    D5       -2.98730  -0.00046   0.00000   0.02616   0.02592  -2.96137
    D6       -0.01569   0.00010   0.00000  -0.00272  -0.00258  -0.01827
    D7        0.90866  -0.00169   0.00000  -0.00464  -0.00463   0.90403
    D8        3.05241  -0.00096   0.00000   0.00162   0.00094   3.05335
    D9       -1.22954  -0.00113   0.00000  -0.01259  -0.01190  -1.24144
   D10        3.10014  -0.00054   0.00000  -0.00915  -0.00962   3.09053
   D11       -1.03928   0.00019   0.00000  -0.00289  -0.00405  -1.04334
   D12        0.96195   0.00003   0.00000  -0.01710  -0.01689   0.94506
   D13        0.00000  -0.00008   0.00000   0.00235   0.00236   0.00237
   D14        2.97850   0.00053   0.00000  -0.02771  -0.02773   2.95077
   D15       -2.97849  -0.00061   0.00000   0.03195   0.03195  -2.94654
   D16        0.00000   0.00000   0.00000   0.00189   0.00186   0.00186
   D17        1.05743  -0.00133   0.00000  -0.02737  -0.02683   1.03060
   D18       -0.42062   0.00276   0.00000  -0.12692  -0.12648  -0.54710
   D19        2.98730   0.00099   0.00000  -0.02424  -0.02424   2.96305
   D20       -1.91418  -0.00197   0.00000   0.00200   0.00221  -1.91197
   D21        2.89096   0.00212   0.00000  -0.09755  -0.09745   2.79351
   D22        0.01569   0.00035   0.00000   0.00513   0.00479   0.02048
   D23       -0.90872   0.00148   0.00000   0.01034   0.01008  -0.89864
   D24       -3.05247   0.00062   0.00000   0.00329   0.00315  -3.04933
   D25        1.22948   0.00088   0.00000   0.01719   0.01637   1.24585
   D26       -3.10020   0.00047   0.00000   0.01473   0.01503  -3.08518
   D27        1.03922  -0.00040   0.00000   0.00768   0.00810   1.04732
   D28       -0.96201  -0.00013   0.00000   0.02158   0.02132  -0.94069
   D29        2.04260  -0.00012   0.00000   0.08667   0.08628   2.12888
   D30       -1.34430   0.00145   0.00000  -0.00964  -0.01015  -1.35445
   D31        0.00003   0.00022   0.00000  -0.00301  -0.00294  -0.00291
   D32       -0.45614   0.00096   0.00000  -0.00876  -0.00841  -0.46455
   D33       -1.70314   0.00058   0.00000  -0.05876  -0.05840  -1.76154
   D34        1.69782   0.00023   0.00000   0.07531   0.07507   1.77290
   D35        0.45620  -0.00037   0.00000   0.00422   0.00381   0.46001
   D36        0.00002   0.00038   0.00000  -0.00153  -0.00165  -0.00163
   D37       -1.24698   0.00000   0.00000  -0.05154  -0.05165  -1.29863
   D38        2.15399  -0.00035   0.00000   0.08253   0.08182   2.23581
   D39        1.70318  -0.00090   0.00000   0.05104   0.05073   1.75392
   D40        1.24701  -0.00016   0.00000   0.04529   0.04526   1.29227
   D41        0.00001  -0.00054   0.00000  -0.00472  -0.00473  -0.00472
   D42       -2.88221  -0.00089   0.00000   0.12935   0.12874  -2.75347
   D43       -1.69778  -0.00008   0.00000  -0.07877  -0.07847  -1.77624
   D44       -2.15395   0.00066   0.00000  -0.08452  -0.08393  -2.23789
   D45        2.88223   0.00028   0.00000  -0.13453  -0.13393   2.74830
   D46        0.00001  -0.00007   0.00000  -0.00046  -0.00046  -0.00044
   D47        2.13805   0.00016   0.00000   0.01057   0.01241   2.15046
         Item               Value     Threshold  Converged?
 Maximum Force            0.017657     0.000015     NO 
 RMS     Force            0.002694     0.000010     NO 
 Maximum Displacement     0.109819     0.000060     NO 
 RMS     Displacement     0.027629     0.000040     NO 
 Predicted change in Energy= 6.396962D-03
 GradGradGradGradGradGradGradGradGradGradGradGradGradGradGradGradGradGrad

                          Input orientation:                          
 ---------------------------------------------------------------------
 Center     Atomic      Atomic             Coordinates (Angstroms)
 Number     Number       Type             X           Y           Z
 ---------------------------------------------------------------------
      1          6           0       -0.675125    0.944404    0.094057
      2          6           0        0.025038   -0.168011   -0.273269
      3          6           0        1.454206   -0.169327   -0.265603
      4          6           0        2.152322    0.941192    0.111948
      5          6           0        1.411263    1.208595    2.102613
      6          6           0        0.045643    1.207721    2.097179
      7          1           0       -0.300562    1.950004   -0.065045
      8          1           0       -1.745651    0.910337    0.251255
      9          1           0       -0.480265   -1.125084   -0.400639
     10          1           0        1.959088   -1.127088   -0.389338
     11          1           0        1.779993    1.946699   -0.054732
     12          1           0        3.221289    0.903398    0.278656
     13          1           0        1.979337    2.128597    2.153161
     14          1           0        1.968364    0.331941    2.411229
     15          1           0       -0.522117    2.128203    2.147633
     16          1           0       -0.512821    0.330420    2.400896
 ---------------------------------------------------------------------
                    Distance matrix (angstroms):
                    1          2          3          4          5
     1  C    0.000000
     2  C    1.364779   0.000000
     3  C    2.429774   1.429190   0.000000
     4  C    2.827506   2.429828   1.364978   0.000000
     5  C    2.908111   3.075952   2.740249   2.140893   0.000000
     6  C    2.145074   2.740819   3.076208   2.906936   1.365631
     7  H    1.084824   2.152988   2.758804   2.658133   2.859856
     8  H    1.082542   2.138527   3.416417   3.900584   3.671865
     9  H    2.136697   1.089745   2.161917   3.385670   3.910270
    10  H    3.385828   2.161910   1.089735   2.136916   3.459097
    11  H    2.656000   2.756741   2.151318   1.085106   2.309739
    12  H    3.900999   3.415927   2.137648   1.082547   2.587694
    13  H    3.562077   3.870563   3.377372   2.367785   1.082436
    14  H    3.568253   3.351566   2.771472   2.385733   1.083572
    15  H    2.375282   3.381234   3.874043   3.564496   2.141417
    16  H    2.392661   2.772884   3.350995   3.565854   2.135946
                    6          7          8          9         10
     6  C    0.000000
     7  H    2.312154   0.000000
     8  H    2.589325   1.808103   0.000000
     9  H    3.457984   3.098561   2.483768   0.000000
    10  H    3.910930   3.831407   4.276278   2.439381   0.000000
    11  H    2.860905   2.080583   3.687525   3.829395   3.097128
    12  H    3.672106   3.690114   4.967020   4.275241   2.482386
    13  H    2.142503   3.185949   4.356253   4.812274   4.130883
    14  H    2.135995   3.728014   4.335197   4.003162   3.157851
    15  H    1.082675   2.230871   2.564465   4.132713   4.815550
    16  H    1.083413   2.957866   2.545020   3.157238   4.002508
                   11         12         13         14         15
    11  H    0.000000
    12  H    1.810236   0.000000
    13  H    2.224323   2.560728   0.000000
    14  H    2.953623   2.538553   1.815130   0.000000
    15  H    3.191092   4.359623   2.501460   3.081970   0.000000
    16  H    3.728198   4.333104   3.083126   2.481207   1.815558
                   16
    16  H    0.000000
 Symmetry turned off by external request.
 Stoichiometry    C6H10
 Framework group  C1[X(C6H10)]
 Deg. of freedom    42
 Full point group                 C1      NOp   1
 Rotational constants (GHZ):           4.4025732           3.8232808           2.4302282
 Standard basis: VSTO-6G (5D, 7F)
    34 basis functions,   204 primitive gaussians,    34 cartesian basis functions
    17 alpha electrons       17 beta electrons
       nuclear repulsion energy       143.9470875299 Hartrees.
 Integral buffers will be    131072 words long.
 Regular integral format.
 Two-electron integral symmetry is turned off.
 Do NDO integrals.
 One-electron integrals computed using PRISM.
 NBasis=    34 RedAO= F EigKep=  0.00D+00  NBF=    34
 NBsUse=    34 1.00D-04 EigRej=  0.00D+00 NBFU=    34
 Initial guess from the checkpoint file:  "C:\Users\al6323\OneDrive - Imperial College London\Desktop\TSR20251111\TS_guess_opt_TS(Berny).chk"
 B after Tr=     0.000276   -0.002138   -0.012127
         Rot=    1.000000   -0.000137    0.000154    0.000039 Ang=  -0.02 deg.
 Keep J ints in memory in canonical form, NReq=862358.
 Overlap will be assumed to be unity.
 Requested convergence on RMS density matrix=1.00D-08 within  32 cycles.
 Requested convergence on MAX density matrix=1.00D-06.
 Requested convergence on             energy=1.00D-06.
 No special actions if energy rises.
 SCF Done:  E(RPM6) =  0.112392751541     A.U. after   15 cycles
            NFock= 14  Conv=0.18D-08     -V/T= 1.0022
 QCSCF skips out because SCF is already converged.
 Calling FoFJK, ICntrl=      2127 FMM=F ISym2X=0 I1Cent= 0 IOpClX= 0 NMat=1 NMatS=1 NMatT=0.
 -------------------------------------------------------------------
 Center     Atomic                   Forces (Hartrees/Bohr)
 Number     Number              X              Y              Z
 -------------------------------------------------------------------
      1        6          -0.006742721    0.001541964   -0.009604866
      2        6           0.005024012   -0.002773082    0.000426243
      3        6          -0.005098785   -0.002979152    0.000470812
      4        6           0.006670853    0.001445109   -0.010310503
      5        6           0.000420456    0.000951714    0.011842842
      6        6          -0.000328325    0.001352346    0.012058598
      7        1           0.000462317    0.000305572   -0.000127579
      8        1          -0.000167039   -0.000031474   -0.000269118
      9        1           0.000158918   -0.000066360   -0.000306643
     10        1          -0.000162574   -0.000078490   -0.000244705
     11        1          -0.000215906    0.000371696    0.000011675
     12        1           0.000153498    0.000164544   -0.000143269
     13        1           0.000072081    0.000443719   -0.000548856
     14        1           0.000462392   -0.000438874   -0.001083533
     15        1          -0.000201091    0.000219717   -0.000911190
     16        1          -0.000508084   -0.000428949   -0.001259909
 -------------------------------------------------------------------
 Cartesian Forces:  Max     0.012058598 RMS     0.003696306

 GradGradGradGradGradGradGradGradGradGradGradGradGradGradGradGradGradGrad
 Berny optimization.
 FormGI is forming the generalized inverse of G from B-inverse, IUseBI=4.
 Internal  Forces:  Max     0.008288770 RMS     0.001513972
 Search for a saddle point.
 Step number   2 out of a maximum of  100
 All quantities printed in internal units (Hartrees-Bohrs-Radians)
 Swapping is turned off.
 Update second derivatives using D2CorX and points    1    2
 ITU=  0  0
     Eigenvalues ---   -0.02669   0.00164   0.00583   0.00816   0.01061
     Eigenvalues ---    0.01144   0.01312   0.01481   0.01581   0.01862
     Eigenvalues ---    0.02103   0.02230   0.02595   0.02624   0.03036
     Eigenvalues ---    0.03367   0.03924   0.04270   0.04620   0.05409
     Eigenvalues ---    0.05827   0.06061   0.06561   0.08016   0.09059
     Eigenvalues ---    0.10748   0.10976   0.12096   0.21838   0.22729
     Eigenvalues ---    0.25046   0.26095   0.26426   0.27091   0.27257
     Eigenvalues ---    0.27355   0.27682   0.27930   0.40117   0.61178
     Eigenvalues ---    0.62606   0.70202
 Eigenvectors required to have negative eigenvalues:
                          R2        R9        D3        D18       D4
   1                    0.52894   0.49916  -0.24042   0.21461  -0.19587
                          D42       D45       D21       A34       D29
   1                   -0.17895   0.17505   0.17347   0.16208  -0.12856
 RFO step:  Lambda0=3.888037038D-03 Lambda=-8.32082901D-04.
 Linear search not attempted -- option 19 set.
 Iteration  1 RMS(Cart)=  0.02337898 RMS(Int)=  0.00112153
 Iteration  2 RMS(Cart)=  0.00082943 RMS(Int)=  0.00063987
 Iteration  3 RMS(Cart)=  0.00000084 RMS(Int)=  0.00063987
 Variable       Old X    -DE/DX   Delta X   Delta X   Delta X     New X
                                 (Linear)    (Quad)   (Total)
    R1        2.57906   0.00392   0.00000   0.03186   0.03187   2.61093
    R2        4.05360   0.00829   0.00000  -0.14714  -0.14701   3.90659
    R3        2.05002  -0.00015   0.00000   0.00173   0.00262   2.05264
    R4        2.04571   0.00013   0.00000   0.00041   0.00041   2.04611
    R5        2.70078  -0.00197   0.00000  -0.04409  -0.04403   2.65675
    R6        2.05932   0.00002   0.00000  -0.00033  -0.00033   2.05899
    R7        2.57943   0.00411   0.00000   0.03204   0.03210   2.61153
    R8        2.05930   0.00002   0.00000  -0.00040  -0.00040   2.05890
    R9        4.04570   0.00748   0.00000  -0.14623  -0.14615   3.89955
   R10        2.05055   0.00011   0.00000   0.00104   0.00207   2.05263
   R11        2.04572   0.00012   0.00000   0.00069   0.00069   2.04640
   R12        2.58067   0.00428   0.00000   0.03655   0.03649   2.61716
   R13        4.36477   0.00231   0.00000   0.02697   0.02627   4.39105
   R14        2.04551  -0.00007   0.00000   0.00146   0.00139   2.04690
   R15        2.04765   0.00028   0.00000   0.00051   0.00051   2.04816
   R16        4.36934   0.00231   0.00000   0.01997   0.01940   4.38874
   R17        2.04596   0.00025   0.00000   0.00127   0.00127   2.04723
   R18        2.04735   0.00026   0.00000   0.00058   0.00058   2.04794
   R19        4.20336   0.00112   0.00000   0.11025   0.11043   4.31379
    A1        1.75078   0.00076   0.00000   0.00242   0.00237   1.75314
    A2        2.13999   0.00027   0.00000  -0.01545  -0.01697   2.12302
    A3        2.11854   0.00023   0.00000  -0.01362  -0.01413   2.10440
    A4        1.77271   0.00018   0.00000   0.00304   0.00303   1.77573
    A5        1.97350   0.00001   0.00000   0.00168  -0.00022   1.97329
    A6        2.10868   0.00061   0.00000  -0.00782  -0.00799   2.10070
    A7        2.10532  -0.00007   0.00000  -0.01017  -0.01008   2.09523
    A8        2.05274  -0.00039   0.00000   0.01737   0.01745   2.07019
    A9        2.10851   0.00063   0.00000  -0.00788  -0.00799   2.10052
   A10        2.05274  -0.00041   0.00000   0.01741   0.01746   2.07020
   A11        2.10540  -0.00008   0.00000  -0.01016  -0.01010   2.09530
   A12        1.75359   0.00077   0.00000   0.00291   0.00284   1.75642
   A13        2.13639   0.00027   0.00000  -0.01381  -0.01573   2.12067
   A14        2.11674   0.00019   0.00000  -0.01334  -0.01385   2.10288
   A15        1.77519   0.00015   0.00000  -0.00151  -0.00159   1.77360
   A16        1.97668  -0.00004   0.00000  -0.00057  -0.00202   1.97465
   A17        1.92023  -0.00048   0.00000   0.00022   0.00022   1.92045
   A18        1.53871  -0.00058   0.00000   0.04517   0.04507   1.58378
   A19        1.55661   0.00003   0.00000   0.04384   0.04472   1.60133
   A20        1.72757   0.00003   0.00000  -0.00295  -0.00217   1.72539
   A21        2.12414   0.00068   0.00000  -0.01938  -0.02011   2.10403
   A22        2.11151  -0.00013   0.00000  -0.01209  -0.01338   2.09812
   A23        2.02916  -0.00038   0.00000   0.04460   0.04410   2.07326
   A24        1.98724  -0.00018   0.00000  -0.00015  -0.00252   1.98472
   A25        1.91750  -0.00077   0.00000   0.00434   0.00422   1.92172
   A26        1.54247  -0.00009   0.00000   0.03777   0.03778   1.58025
   A27        1.55997   0.00003   0.00000   0.04059   0.04147   1.60144
   A28        1.72465  -0.00015   0.00000  -0.00146  -0.00072   1.72393
   A29        2.12195   0.00052   0.00000  -0.01760  -0.01840   2.10355
   A30        2.11165  -0.00010   0.00000  -0.01204  -0.01327   2.09838
   A31        1.25783   0.00000   0.00000   0.03690   0.03730   1.29513
   A32        2.03190  -0.00046   0.00000   0.04283   0.04236   2.07426
   A33        1.98785  -0.00011   0.00000  -0.00012  -0.00192   1.98593
   A34        1.46314   0.00236   0.00000  -0.07543  -0.07511   1.38803
    D1       -1.03327   0.00023   0.00000   0.00290   0.00272  -1.03055
    D2        1.90983   0.00106   0.00000   0.00116   0.00106   1.91090
    D3        0.54191  -0.00238   0.00000   0.09639   0.09619   0.63810
    D4       -2.79818  -0.00156   0.00000   0.09464   0.09454  -2.70364
    D5       -2.96137  -0.00064   0.00000   0.00312   0.00321  -2.95816
    D6       -0.01827   0.00019   0.00000   0.00138   0.00156  -0.01671
    D7        0.90403  -0.00094   0.00000   0.00736   0.00754   0.91157
    D8        3.05335  -0.00057   0.00000   0.00479   0.00464   3.05799
    D9       -1.24144  -0.00068   0.00000   0.00229   0.00273  -1.23872
   D10        3.09053  -0.00034   0.00000  -0.00538  -0.00579   3.08474
   D11       -1.04334   0.00004   0.00000  -0.00796  -0.00869  -1.05202
   D12        0.94506  -0.00007   0.00000  -0.01045  -0.01060   0.93446
   D13        0.00237  -0.00001   0.00000  -0.00294  -0.00294  -0.00057
   D14        2.95077   0.00081   0.00000  -0.00765  -0.00763   2.94314
   D15       -2.94654  -0.00084   0.00000   0.00169   0.00168  -2.94485
   D16        0.00186  -0.00003   0.00000  -0.00301  -0.00301  -0.00114
   D17        1.03060  -0.00009   0.00000   0.00165   0.00189   1.03249
   D18       -0.54710   0.00212   0.00000  -0.09634  -0.09618  -0.64328
   D19        2.96305   0.00073   0.00000  -0.00384  -0.00394   2.95912
   D20       -1.91197  -0.00090   0.00000   0.00345   0.00360  -1.90837
   D21        2.79351   0.00132   0.00000  -0.09454  -0.09447   2.69905
   D22        0.02048  -0.00008   0.00000  -0.00204  -0.00223   0.01826
   D23       -0.89864   0.00081   0.00000  -0.00563  -0.00591  -0.90455
   D24       -3.04933   0.00040   0.00000  -0.00341  -0.00341  -3.05274
   D25        1.24585   0.00057   0.00000  -0.00010  -0.00080   1.24505
   D26       -3.08518   0.00025   0.00000   0.00832   0.00865  -3.07653
   D27        1.04732  -0.00016   0.00000   0.01054   0.01115   1.05847
   D28       -0.94069   0.00001   0.00000   0.01385   0.01376  -0.92693
   D29        2.12888  -0.00087   0.00000   0.04969   0.04970   2.17858
   D30       -1.35445   0.00046   0.00000  -0.03830  -0.03838  -1.39284
   D31       -0.00291   0.00011   0.00000  -0.00157  -0.00152  -0.00443
   D32       -0.46455   0.00040   0.00000  -0.00137  -0.00019  -0.46474
   D33       -1.76154   0.00050   0.00000  -0.04402  -0.04323  -1.80477
   D34        1.77290  -0.00043   0.00000   0.04688   0.04726   1.82016
   D35        0.46001  -0.00011   0.00000  -0.00199  -0.00318   0.45683
   D36       -0.00163   0.00018   0.00000  -0.00179  -0.00185  -0.00348
   D37       -1.29863   0.00028   0.00000  -0.04444  -0.04489  -1.34352
   D38        2.23581  -0.00064   0.00000   0.04647   0.04560   2.28141
   D39        1.75392  -0.00063   0.00000   0.04661   0.04584   1.79976
   D40        1.29227  -0.00034   0.00000   0.04681   0.04718   1.33945
   D41       -0.00472  -0.00024   0.00000   0.00417   0.00414  -0.00059
   D42       -2.75347  -0.00117   0.00000   0.09507   0.09463  -2.65884
   D43       -1.77624   0.00047   0.00000  -0.05129  -0.05160  -1.82784
   D44       -2.23789   0.00076   0.00000  -0.05108  -0.05027  -2.28815
   D45        2.74830   0.00086   0.00000  -0.09373  -0.09331   2.65500
   D46       -0.00044  -0.00006   0.00000  -0.00283  -0.00282  -0.00326
   D47        2.15046   0.00017   0.00000   0.01425   0.01496   2.16542
         Item               Value     Threshold  Converged?
 Maximum Force            0.008289     0.000015     NO 
 RMS     Force            0.001514     0.000010     NO 
 Maximum Displacement     0.091722     0.000060     NO 
 RMS     Displacement     0.023380     0.000040     NO 
 Predicted change in Energy= 1.763677D-03
 GradGradGradGradGradGradGradGradGradGradGradGradGradGradGradGradGradGrad

                          Input orientation:                          
 ---------------------------------------------------------------------
 Center     Atomic      Atomic             Coordinates (Angstroms)
 Number     Number       Type             X           Y           Z
 ---------------------------------------------------------------------
      1          6           0       -0.663589    0.958423    0.124610
      2          6           0        0.035590   -0.168943   -0.261563
      3          6           0        1.441454   -0.170873   -0.252961
      4          6           0        2.138901    0.955177    0.141247
      5          6           0        1.422636    1.193902    2.061721
      6          6           0        0.037712    1.191449    2.055291
      7          1           0       -0.307860    1.957624   -0.109700
      8          1           0       -1.733890    0.915460    0.282636
      9          1           0       -0.486694   -1.115854   -0.394785
     10          1           0        1.962709   -1.119316   -0.378706
     11          1           0        1.789139    1.954035   -0.103269
     12          1           0        3.207354    0.908156    0.311219
     13          1           0        1.971114    2.122103    2.166009
     14          1           0        1.967988    0.323943    2.408811
     15          1           0       -0.514640    2.118051    2.155057
     16          1           0       -0.507922    0.318665    2.394384
 ---------------------------------------------------------------------
                    Distance matrix (angstroms):
                    1          2          3          4          5
     1  C    0.000000
     2  C    1.381642   0.000000
     3  C    2.418486   1.405892   0.000000
     4  C    2.802541   2.418640   1.381963   0.000000
     5  C    2.856603   3.029669   2.687140   2.063552   0.000000
     6  C    2.067281   2.686724   3.025630   2.852084   1.384941
     7  H    1.086208   2.159470   2.758827   2.656033   2.879749
     8  H    1.082757   2.145493   3.398498   3.875574   3.634051
     9  H    2.145621   1.089572   2.151942   3.386775   3.874911
    10  H    3.386410   2.151911   1.089525   2.145907   3.405635
    11  H    2.656887   2.758085   2.158363   1.086204   2.323642
    12  H    3.875764   3.398281   2.144996   1.082910   2.516174
    13  H    3.530314   3.858530   3.374862   2.342975   1.083172
    14  H    3.541939   3.332866   2.758099   2.359982   1.083840
    15  H    2.342997   3.372410   3.855389   3.528312   2.148441
    16  H    2.363344   2.754491   3.323875   3.533758   2.145637
                    6          7          8          9         10
     6  C    0.000000
     7  H    2.322419   0.000000
     8  H    2.521319   1.809308   0.000000
     9  H    3.406100   3.091848   2.478030   0.000000
    10  H    3.869056   3.833460   4.271128   2.449459   0.000000
    11  H    2.882433   2.097012   3.693142   3.832573   3.090547
    12  H    3.628867   3.692599   4.941332   4.270954   2.477051
    13  H    2.148585   3.224845   4.327833   4.804462   4.120976
    14  H    2.145578   3.767133   4.309804   3.994825   3.138993
    15  H    1.083345   2.279829   2.537471   4.118327   4.799767
    16  H    1.083721   2.999442   2.513691   3.136521   3.982693
                   11         12         13         14         15
    11  H    0.000000
    12  H    1.810248   0.000000
    13  H    2.282758   2.538150   0.000000
    14  H    2.999955   2.505439   1.814481   0.000000
    15  H    3.230222   4.326295   2.485781   3.073540   0.000000
    16  H    3.766855   4.300041   3.074112   2.475957   1.815244
                   16
    16  H    0.000000
 Symmetry turned off by external request.
 Stoichiometry    C6H10
 Framework group  C1[X(C6H10)]
 Deg. of freedom    42
 Full point group                 C1      NOp   1
 Rotational constants (GHZ):           4.4375906           3.9505946           2.4955291
 Standard basis: VSTO-6G (5D, 7F)
    34 basis functions,   204 primitive gaussians,    34 cartesian basis functions
    17 alpha electrons       17 beta electrons
       nuclear repulsion energy       144.5042736671 Hartrees.
 Integral buffers will be    131072 words long.
 Regular integral format.
 Two-electron integral symmetry is turned off.
 Do NDO integrals.
 One-electron integrals computed using PRISM.
 NBasis=    34 RedAO= F EigKep=  0.00D+00  NBF=    34
 NBsUse=    34 1.00D-04 EigRej=  0.00D+00 NBFU=    34
 Initial guess from the checkpoint file:  "C:\Users\al6323\OneDrive - Imperial College London\Desktop\TSR20251111\TS_guess_opt_TS(Berny).chk"
 B after Tr=    -0.000629   -0.000287   -0.000018
         Rot=    1.000000   -0.000286   -0.000160    0.000029 Ang=  -0.04 deg.
 Keep J ints in memory in canonical form, NReq=862358.
 Overlap will be assumed to be unity.
 Requested convergence on RMS density matrix=1.00D-08 within  32 cycles.
 Requested convergence on MAX density matrix=1.00D-06.
 Requested convergence on             energy=1.00D-06.
 No special actions if energy rises.
 SCF Done:  E(RPM6) =  0.111584196403     A.U. after   15 cycles
            NFock= 14  Conv=0.68D-08     -V/T= 1.0022
 QCSCF skips out because SCF is already converged.
 Calling FoFJK, ICntrl=      2127 FMM=F ISym2X=0 I1Cent= 0 IOpClX= 0 NMat=1 NMatS=1 NMatT=0.
 -------------------------------------------------------------------
 Center     Atomic                   Forces (Hartrees/Bohr)
 Number     Number              X              Y              Z
 -------------------------------------------------------------------
      1        6          -0.001830667    0.010693493    0.015999609
      2        6           0.013103492   -0.009980721   -0.002778301
      3        6          -0.013101977   -0.009986282   -0.002856852
      4        6           0.001810596    0.010550080    0.015831776
      5        6           0.017840655   -0.001560078   -0.012354772
      6        6          -0.017839272   -0.001248643   -0.012233569
      7        1          -0.000185471    0.000111299   -0.001753079
      8        1          -0.000466443    0.000068490   -0.000738250
      9        1          -0.000053781    0.000112349   -0.001050703
     10        1           0.000068875    0.000113995   -0.001055257
     11        1           0.000244950    0.000212795   -0.001545591
     12        1           0.000474712    0.000180334   -0.000768477
     13        1          -0.000091424    0.000799105    0.001436761
     14        1          -0.000013404   -0.000383131    0.001214294
     15        1           0.000067719    0.000659879    0.001464868
     16        1          -0.000028560   -0.000342963    0.001187542
 -------------------------------------------------------------------
 Cartesian Forces:  Max     0.017840655 RMS     0.006859075

 GradGradGradGradGradGradGradGradGradGradGradGradGradGradGradGradGradGrad
 Berny optimization.
 FormGI is forming the generalized inverse of G from B-inverse, IUseBI=4.
 Internal  Forces:  Max     0.014098817 RMS     0.002741784
 Search for a saddle point.
 Step number   3 out of a maximum of  100
 All quantities printed in internal units (Hartrees-Bohrs-Radians)
 Swapping is turned off.
 Update second derivatives using D2CorX and points    2    3
 ITU=  0  0  0
     Eigenvalues ---   -0.08104   0.00165   0.00678   0.00826   0.01073
     Eigenvalues ---    0.01209   0.01358   0.01489   0.01601   0.01866
     Eigenvalues ---    0.02101   0.02235   0.02588   0.02785   0.03047
     Eigenvalues ---    0.03357   0.03929   0.04264   0.04776   0.05398
     Eigenvalues ---    0.05808   0.06197   0.06519   0.07973   0.09075
     Eigenvalues ---    0.10738   0.10974   0.12084   0.21747   0.22660
     Eigenvalues ---    0.25006   0.26094   0.26420   0.27081   0.27250
     Eigenvalues ---    0.27342   0.27681   0.27927   0.39507   0.61162
     Eigenvalues ---    0.62566   0.68867
 Eigenvectors required to have negative eigenvalues:
                          R2        R9        D3        D4        D18
   1                    0.55046   0.51130  -0.22289  -0.20186   0.19187
                          D21       A34       D42       D45       R5
   1                    0.17280   0.17274  -0.14957   0.14334   0.13774
 RFO step:  Lambda0=3.974366619D-03 Lambda=-1.12327049D-03.
 Linear search not attempted -- option 19 set.
 Iteration  1 RMS(Cart)=  0.01571702 RMS(Int)=  0.00033671
 Iteration  2 RMS(Cart)=  0.00027048 RMS(Int)=  0.00018696
 Iteration  3 RMS(Cart)=  0.00000009 RMS(Int)=  0.00018696
 Variable       Old X    -DE/DX   Delta X   Delta X   Delta X     New X
                                 (Linear)    (Quad)   (Total)
    R1        2.61093   0.01232   0.00000  -0.00486  -0.00487   2.60606
    R2        3.90659  -0.00918   0.00000   0.10040   0.10046   4.00706
    R3        2.05264   0.00085   0.00000  -0.00126  -0.00110   2.05153
    R4        2.04611   0.00035   0.00000  -0.00154  -0.00154   2.04457
    R5        2.65675  -0.00687   0.00000   0.00956   0.00959   2.66634
    R6        2.05899   0.00006   0.00000   0.00057   0.00057   2.05956
    R7        2.61153   0.01221   0.00000  -0.00531  -0.00527   2.60626
    R8        2.05890   0.00006   0.00000   0.00059   0.00059   2.05950
    R9        3.89955  -0.00828   0.00000   0.10341   0.10342   4.00297
   R10        2.05263   0.00063   0.00000  -0.00129  -0.00105   2.05158
   R11        2.04640   0.00034   0.00000  -0.00166  -0.00166   2.04475
   R12        2.61716   0.01410   0.00000  -0.00721  -0.00724   2.60992
   R13        4.39105  -0.00201   0.00000   0.02102   0.02095   4.41200
   R14        2.04690   0.00127   0.00000  -0.00020  -0.00022   2.04668
   R15        2.04816   0.00069   0.00000  -0.00072  -0.00072   2.04744
   R16        4.38874  -0.00122   0.00000   0.02200   0.02185   4.41059
   R17        2.04723   0.00066   0.00000  -0.00079  -0.00079   2.04644
   R18        2.04794   0.00066   0.00000  -0.00064  -0.00064   2.04730
   R19        4.31379  -0.00020   0.00000  -0.00744  -0.00749   4.30630
    A1        1.75314  -0.00121   0.00000  -0.01125  -0.01128   1.74187
    A2        2.12302  -0.00123   0.00000   0.00292   0.00248   2.12550
    A3        2.10440   0.00006   0.00000   0.00684   0.00680   2.11121
    A4        1.77573   0.00047   0.00000   0.00907   0.00903   1.78476
    A5        1.97329   0.00002   0.00000   0.00639   0.00603   1.97932
    A6        2.10070   0.00052   0.00000   0.00871   0.00856   2.10926
    A7        2.09523  -0.00008   0.00000   0.00110   0.00107   2.09630
    A8        2.07019  -0.00037   0.00000  -0.00612  -0.00614   2.06405
    A9        2.10052   0.00040   0.00000   0.00851   0.00841   2.10893
   A10        2.07020  -0.00030   0.00000  -0.00595  -0.00600   2.06420
   A11        2.09530  -0.00004   0.00000   0.00116   0.00111   2.09640
   A12        1.75642  -0.00126   0.00000  -0.01332  -0.01335   1.74307
   A13        2.12067  -0.00073   0.00000   0.00536   0.00465   2.12531
   A14        2.10288   0.00029   0.00000   0.00822   0.00814   2.11102
   A15        1.77360   0.00031   0.00000   0.01029   0.01027   1.78387
   A16        1.97465  -0.00028   0.00000   0.00406   0.00386   1.97851
   A17        1.92045  -0.00015   0.00000  -0.00200  -0.00200   1.91845
   A18        1.58378   0.00094   0.00000  -0.01761  -0.01760   1.56617
   A19        1.60133   0.00017   0.00000  -0.03064  -0.03041   1.57092
   A20        1.72539  -0.00053   0.00000  -0.00280  -0.00254   1.72285
   A21        2.10403  -0.00071   0.00000   0.00602   0.00584   2.10987
   A22        2.09812   0.00002   0.00000   0.00879   0.00832   2.10645
   A23        2.07326   0.00063   0.00000  -0.03204  -0.03219   2.04107
   A24        1.98472   0.00029   0.00000   0.00809   0.00736   1.99208
   A25        1.92172   0.00001   0.00000  -0.00331  -0.00336   1.91837
   A26        1.58025   0.00059   0.00000  -0.01548  -0.01540   1.56485
   A27        1.60144   0.00015   0.00000  -0.03196  -0.03172   1.56972
   A28        1.72393  -0.00055   0.00000  -0.00217  -0.00190   1.72203
   A29        2.10355  -0.00047   0.00000   0.00701   0.00673   2.11028
   A30        2.09838   0.00000   0.00000   0.00897   0.00846   2.10684
   A31        1.29513   0.00059   0.00000  -0.01185  -0.01188   1.28325
   A32        2.07426   0.00063   0.00000  -0.03397  -0.03409   2.04017
   A33        1.98593   0.00015   0.00000   0.00701   0.00637   1.99231
   A34        1.38803  -0.00257   0.00000   0.03399   0.03414   1.42218
    D1       -1.03055  -0.00094   0.00000  -0.00875  -0.00893  -1.03948
    D2        1.91090  -0.00061   0.00000   0.01193   0.01184   1.92274
    D3        0.63810   0.00226   0.00000  -0.05866  -0.05869   0.57941
    D4       -2.70364   0.00260   0.00000  -0.03798  -0.03792  -2.74156
    D5       -2.95816  -0.00070   0.00000  -0.01493  -0.01498  -2.97314
    D6       -0.01671  -0.00036   0.00000   0.00575   0.00579  -0.01091
    D7        0.91157   0.00029   0.00000  -0.00414  -0.00407   0.90750
    D8        3.05799   0.00004   0.00000  -0.00415  -0.00423   3.05376
    D9       -1.23872   0.00022   0.00000   0.00153   0.00161  -1.23710
   D10        3.08474   0.00007   0.00000   0.00235   0.00229   3.08704
   D11       -1.05202  -0.00018   0.00000   0.00234   0.00213  -1.04989
   D12        0.93446   0.00000   0.00000   0.00802   0.00798   0.94243
   D13       -0.00057   0.00004   0.00000   0.00041   0.00042  -0.00015
   D14        2.94314   0.00037   0.00000   0.02171   0.02171   2.96485
   D15       -2.94485  -0.00032   0.00000  -0.02076  -0.02076  -2.96561
   D16       -0.00114   0.00001   0.00000   0.00054   0.00054  -0.00060
   D17        1.03249   0.00068   0.00000   0.00786   0.00805   1.04053
   D18       -0.64328  -0.00164   0.00000   0.06093   0.06098  -0.58230
   D19        2.95912   0.00030   0.00000   0.01471   0.01475   2.97386
   D20       -1.90837   0.00038   0.00000  -0.01296  -0.01286  -1.92123
   D21        2.69905  -0.00194   0.00000   0.04012   0.04008   2.73912
   D22        0.01826   0.00000   0.00000  -0.00611  -0.00616   0.01209
   D23       -0.90455  -0.00020   0.00000  -0.00145  -0.00160  -0.90615
   D24       -3.05274   0.00019   0.00000   0.00028   0.00020  -3.05254
   D25        1.24505  -0.00014   0.00000  -0.00629  -0.00649   1.23856
   D26       -3.07653  -0.00015   0.00000  -0.00913  -0.00910  -3.08563
   D27        1.05847   0.00024   0.00000  -0.00741  -0.00730   1.05116
   D28       -0.92693  -0.00009   0.00000  -0.01397  -0.01399  -0.94092
   D29        2.17858   0.00065   0.00000  -0.03959  -0.03954   2.13904
   D30       -1.39284  -0.00101   0.00000   0.00451   0.00451  -1.38833
   D31       -0.00443  -0.00008   0.00000   0.00344   0.00346  -0.00097
   D32       -0.46474  -0.00024   0.00000   0.00693   0.00708  -0.45765
   D33       -1.80477  -0.00061   0.00000   0.02179   0.02191  -1.78287
   D34        1.82016   0.00011   0.00000  -0.03479  -0.03478   1.78538
   D35        0.45683   0.00018   0.00000  -0.00064  -0.00083   0.45600
   D36       -0.00348   0.00002   0.00000   0.00284   0.00280  -0.00068
   D37       -1.34352  -0.00034   0.00000   0.01770   0.01762  -1.32590
   D38        2.28141   0.00037   0.00000  -0.03887  -0.03907   2.24235
   D39        1.79976   0.00064   0.00000  -0.01721  -0.01730   1.78245
   D40        1.33945   0.00048   0.00000  -0.01372  -0.01368   1.32577
   D41       -0.00059   0.00011   0.00000   0.00113   0.00114   0.00056
   D42       -2.65884   0.00083   0.00000  -0.05544  -0.05554  -2.71439
   D43       -1.82784  -0.00021   0.00000   0.03915   0.03915  -1.78869
   D44       -2.28815  -0.00037   0.00000   0.04264   0.04278  -2.24538
   D45        2.65500  -0.00074   0.00000   0.05750   0.05760   2.71260
   D46       -0.00326  -0.00002   0.00000   0.00092   0.00092  -0.00235
   D47        2.16542   0.00019   0.00000  -0.01015  -0.00974   2.15568
         Item               Value     Threshold  Converged?
 Maximum Force            0.014099     0.000015     NO 
 RMS     Force            0.002742     0.000010     NO 
 Maximum Displacement     0.066041     0.000060     NO 
 RMS     Displacement     0.015717     0.000040     NO 
 Predicted change in Energy= 1.512352D-03
 GradGradGradGradGradGradGradGradGradGradGradGradGradGradGradGradGradGrad

                          Input orientation:                          
 ---------------------------------------------------------------------
 Center     Atomic      Atomic             Coordinates (Angstroms)
 Number     Number       Type             X           Y           Z
 ---------------------------------------------------------------------
      1          6           0       -0.674491    0.953144    0.105446
      2          6           0        0.033626   -0.172478   -0.259757
      3          6           0        1.444572   -0.173810   -0.252184
      4          6           0        2.150523    0.950841    0.120536
      5          6           0        1.419969    1.201009    2.093053
      6          6           0        0.038871    1.201327    2.086808
      7          1           0       -0.302729    1.952989   -0.096259
      8          1           0       -1.745986    0.914075    0.250254
      9          1           0       -0.482585   -1.122447   -0.397263
     10          1           0        1.960563   -1.124726   -0.383560
     11          1           0        1.783647    1.951164   -0.087766
     12          1           0        3.220513    0.910063    0.276272
     13          1           0        1.975787    2.126846    2.176108
     14          1           0        1.971346    0.323382    2.408711
     15          1           0       -0.517565    2.127130    2.164291
     16          1           0       -0.516060    0.323490    2.395311
 ---------------------------------------------------------------------
                    Distance matrix (angstroms):
                    1          2          3          4          5
     1  C    0.000000
     2  C    1.379067   0.000000
     3  C    2.426592   1.410967   0.000000
     4  C    2.825055   2.426462   1.379176   0.000000
     5  C    2.898066   3.056817   2.718615   2.118281   0.000000
     6  C    2.120443   2.719143   3.055795   2.896212   1.381112
     7  H    1.085625   2.158119   2.756927   2.658900   2.885524
     8  H    1.081942   2.146562   3.408166   3.898841   3.674441
     9  H    2.144206   1.089873   2.152881   3.391149   3.901261
    10  H    3.391192   2.152949   1.089839   2.144336   3.440189
    11  H    2.660040   2.757173   2.158128   1.085649   2.334730
    12  H    3.898986   3.408147   2.146627   1.082033   2.574354
    13  H    3.562189   3.871991   3.387006   2.374636   1.083054
    14  H    3.563999   3.334870   2.757726   2.379403   1.083461
    15  H    2.375229   3.386446   3.870872   3.560798   2.148677
    16  H    2.380136   2.756360   3.331758   3.560735   2.147000
                    6          7          8          9         10
     6  C    0.000000
     7  H    2.333981   0.000000
     8  H    2.577045   1.811741   0.000000
     9  H    3.441287   3.095361   2.482515   0.000000
    10  H    3.899506   3.831105   4.277492   2.443188   0.000000
    11  H    2.887087   2.086394   3.694336   3.831276   3.095140
    12  H    3.672291   3.693198   4.966569   4.277578   2.482582
    13  H    2.148535   3.222656   4.362490   4.819101   4.138219
    14  H    2.146828   3.755252   4.338942   3.998211   3.145459
    15  H    1.082929   2.277403   2.577607   4.137938   4.817389
    16  H    1.083384   2.984744   2.542199   3.144888   3.994135
                   11         12         13         14         15
    11  H    0.000000
    12  H    1.811353   0.000000
    13  H    2.278795   2.576681   0.000000
    14  H    2.986186   2.540061   1.818409   0.000000
    15  H    3.224639   4.361089   2.493380   3.083493   0.000000
    16  H    3.755481   4.335478   3.083739   2.487442   1.818375
                   16
    16  H    0.000000
 Symmetry turned off by external request.
 Stoichiometry    C6H10
 Framework group  C1[X(C6H10)]
 Deg. of freedom    42
 Full point group                 C1      NOp   1
 Rotational constants (GHZ):           4.3933136           3.8598728           2.4507697
 Standard basis: VSTO-6G (5D, 7F)
    34 basis functions,   204 primitive gaussians,    34 cartesian basis functions
    17 alpha electrons       17 beta electrons
       nuclear repulsion energy       143.9935483965 Hartrees.
 Integral buffers will be    131072 words long.
 Regular integral format.
 Two-electron integral symmetry is turned off.
 Do NDO integrals.
 One-electron integrals computed using PRISM.
 NBasis=    34 RedAO= F EigKep=  0.00D+00  NBF=    34
 NBsUse=    34 1.00D-04 EigRej=  0.00D+00 NBFU=    34
 Initial guess from the checkpoint file:  "C:\Users\al6323\OneDrive - Imperial College London\Desktop\TSR20251111\TS_guess_opt_TS(Berny).chk"
 B after Tr=     0.000155   -0.001274    0.006635
         Rot=    1.000000    0.000514   -0.000009   -0.000039 Ang=   0.06 deg.
 Keep J ints in memory in canonical form, NReq=862358.
 Overlap will be assumed to be unity.
 Requested convergence on RMS density matrix=1.00D-08 within  32 cycles.
 Requested convergence on MAX density matrix=1.00D-06.
 Requested convergence on             energy=1.00D-06.
 No special actions if energy rises.
 SCF Done:  E(RPM6) =  0.112856616729     A.U. after   15 cycles
            NFock= 14  Conv=0.25D-08     -V/T= 1.0022
 QCSCF skips out because SCF is already converged.
 Calling FoFJK, ICntrl=      2127 FMM=F ISym2X=0 I1Cent= 0 IOpClX= 0 NMat=1 NMatS=1 NMatT=0.
 -------------------------------------------------------------------
 Center     Atomic                   Forces (Hartrees/Bohr)
 Number     Number              X              Y              Z
 -------------------------------------------------------------------
      1        6           0.000140690   -0.000266014   -0.001029551
      2        6          -0.001332337    0.000247545   -0.000029613
      3        6           0.001298078    0.000282390    0.000031064
      4        6           0.000008396   -0.000254248   -0.001107402
      5        6          -0.000787356    0.000179755    0.001180561
      6        6           0.000751944    0.000159096    0.001134697
      7        1          -0.000029335   -0.000065599    0.000196508
      8        1           0.000097956    0.000059110    0.000164417
      9        1          -0.000019667   -0.000026670    0.000127106
     10        1           0.000016017   -0.000026086    0.000126189
     11        1          -0.000044033   -0.000064588    0.000280031
     12        1          -0.000105286    0.000031482    0.000170952
     13        1          -0.000008808   -0.000139604   -0.000362311
     14        1          -0.000035811   -0.000004066   -0.000295414
     15        1           0.000002790   -0.000110846   -0.000348826
     16        1           0.000046761   -0.000001658   -0.000238410
 -------------------------------------------------------------------
 Cartesian Forces:  Max     0.001332337 RMS     0.000470927

 GradGradGradGradGradGradGradGradGradGradGradGradGradGradGradGradGradGrad
 Berny optimization.
 FormGI is forming the generalized inverse of G from B-inverse, IUseBI=4.
 Internal  Forces:  Max     0.000971256 RMS     0.000173981
[...]
   D30       -1.38493   0.00000   0.00000   0.00000   0.00000  -1.38493
   D31        0.00001   0.00000   0.00000   0.00000   0.00000   0.00001
   D32       -0.45677   0.00000   0.00000   0.00000   0.00000  -0.45677
   D33       -1.78042   0.00000   0.00000   0.00001   0.00001  -1.78042
   D34        1.78848   0.00000   0.00000   0.00000   0.00000   1.78848
   D35        0.45679   0.00000   0.00000   0.00000   0.00000   0.45679
   D36        0.00001   0.00000   0.00000   0.00000   0.00000   0.00001
   D37       -1.32365   0.00000   0.00000   0.00001   0.00001  -1.32364
   D38        2.24526   0.00000   0.00000   0.00000   0.00000   2.24526
   D39        1.78044   0.00000   0.00000   0.00000   0.00000   1.78044
   D40        1.32365   0.00000   0.00000   0.00000   0.00000   1.32366
   D41        0.00000   0.00000   0.00000   0.00001   0.00001   0.00001
   D42       -2.71428   0.00000   0.00000   0.00000   0.00000  -2.71428
   D43       -1.78846   0.00000   0.00000   0.00000   0.00000  -1.78846
   D44       -2.24524   0.00000   0.00000   0.00000   0.00000  -2.24524
   D45        2.71429   0.00000   0.00000   0.00000   0.00000   2.71430
   D46        0.00002   0.00000   0.00000   0.00000   0.00000   0.00001
   D47        2.15303   0.00000   0.00000   0.00000   0.00000   2.15303
         Item               Value     Threshold  Converged?
 Maximum Force            0.000001     0.000015     YES
 RMS     Force            0.000000     0.000010     YES
 Maximum Displacement     0.000018     0.000060     YES
 RMS     Displacement     0.000005     0.000040     YES
 Predicted change in Energy=-1.233779D-11
 Optimization completed.
    -- Stationary point found.
                           ----------------------------
                           !   Optimized Parameters   !
                           ! (Angstroms and Degrees)  !
 --------------------------                            --------------------------
 ! Name  Definition              Value          Derivative Info.                !
 --------------------------------------------------------------------------------
 ! R1    R(1,2)                  1.3798         -DE/DX =    0.0                 !
 ! R2    R(1,6)                  2.1147         -DE/DX =    0.0                 !
 ! R3    R(1,7)                  1.0856         -DE/DX =    0.0                 !
 ! R4    R(1,8)                  1.0819         -DE/DX =    0.0                 !
 ! R5    R(2,3)                  1.4111         -DE/DX =    0.0                 !
 ! R6    R(2,9)                  1.0897         -DE/DX =    0.0                 !
 ! R7    R(3,4)                  1.3798         -DE/DX =    0.0                 !
 ! R8    R(3,10)                 1.0897         -DE/DX =    0.0                 !
 ! R9    R(4,5)                  2.1147         -DE/DX =    0.0                 !
 ! R10   R(4,11)                 1.0856         -DE/DX =    0.0                 !
 ! R11   R(4,12)                 1.0819         -DE/DX =    0.0                 !
 ! R12   R(5,6)                  1.3818         -DE/DX =    0.0                 !
 ! R13   R(5,11)                 2.3328         -DE/DX =    0.0                 !
 ! R14   R(5,13)                 1.0828         -DE/DX =    0.0                 !
 ! R15   R(5,14)                 1.0833         -DE/DX =    0.0                 !
 ! R16   R(6,7)                  2.3328         -DE/DX =    0.0                 !
 ! R17   R(6,15)                 1.0828         -DE/DX =    0.0                 !
 ! R18   R(6,16)                 1.0833         -DE/DX =    0.0                 !
 ! R19   R(11,13)                2.2754         -DE/DX =    0.0                 !
 ! A1    A(2,1,6)               99.9248         -DE/DX =    0.0                 !
 ! A2    A(2,1,7)              121.7653         -DE/DX =    0.0                 !
 ! A3    A(2,1,8)              120.9586         -DE/DX =    0.0                 !
 ! A4    A(6,1,8)              102.0633         -DE/DX =    0.0                 !
 ! A5    A(7,1,8)              113.3663         -DE/DX =    0.0                 !
 ! A6    A(1,2,3)              120.7131         -DE/DX =    0.0                 !
 ! A7    A(1,2,9)              120.141          -DE/DX =    0.0                 !
 ! A8    A(3,2,9)              118.3418         -DE/DX =    0.0                 !
 ! A9    A(2,3,4)              120.7131         -DE/DX =    0.0                 !
 ! A10   A(2,3,10)             118.3418         -DE/DX =    0.0                 !
 ! A11   A(4,3,10)             120.141          -DE/DX =    0.0                 !
 ! A12   A(3,4,5)               99.924          -DE/DX =    0.0                 !
 ! A13   A(3,4,11)             121.7654         -DE/DX =    0.0                 !
 ! A14   A(3,4,12)             120.9587         -DE/DX =    0.0                 !
 ! A15   A(5,4,12)             102.0636         -DE/DX =    0.0                 !
 ! A16   A(11,4,12)            113.3664         -DE/DX =    0.0                 !
 ! A17   A(4,5,6)              109.8876         -DE/DX =    0.0                 !
 ! A18   A(4,5,13)              89.6106         -DE/DX =    0.0                 !
 ! A19   A(4,5,14)              90.0739         -DE/DX =    0.0                 !
 ! A20   A(6,5,11)              98.6134         -DE/DX =    0.0                 !
 ! A21   A(6,5,13)             120.9016         -DE/DX =    0.0                 !
 ! A22   A(6,5,14)             120.6499         -DE/DX =    0.0                 !
 ! A23   A(11,5,14)            117.0532         -DE/DX =    0.0                 !
 ! A24   A(13,5,14)            114.2046         -DE/DX =    0.0                 !
 ! A25   A(1,6,5)              109.8873         -DE/DX =    0.0                 !
 ! A26   A(1,6,15)              89.6114         -DE/DX =    0.0                 !
 ! A27   A(1,6,16)              90.0742         -DE/DX =    0.0                 !
 ! A28   A(5,6,7)               98.6136         -DE/DX =    0.0                 !
 ! A29   A(5,6,15)             120.9015         -DE/DX =    0.0                 !
 ! A30   A(5,6,16)             120.65           -DE/DX =    0.0                 !
 ! A31   A(7,6,15)              73.4736         -DE/DX =    0.0                 !
 ! A32   A(7,6,16)             117.0535         -DE/DX =    0.0                 !
 ! A33   A(15,6,16)            114.2044         -DE/DX =    0.0                 !
 ! A34   A(4,11,13)             81.3565         -DE/DX =    0.0                 !
 ! D1    D(6,1,2,3)            -59.6271         -DE/DX =    0.0                 !
 ! D2    D(6,1,2,9)            109.9342         -DE/DX =    0.0                 !
 ! D3    D(7,1,2,3)             33.4755         -DE/DX =    0.0                 !
 ! D4    D(7,1,2,9)           -156.9633         -DE/DX =    0.0                 !
 ! D5    D(8,1,2,3)           -170.2599         -DE/DX =    0.0                 !
 ! D6    D(8,1,2,9)             -0.6986         -DE/DX =    0.0                 !
 ! D7    D(2,1,6,5)             52.0711         -DE/DX =    0.0                 !
 ! D8    D(2,1,6,15)           175.0064         -DE/DX =    0.0                 !
 ! D9    D(2,1,6,16)           -70.7891         -DE/DX =    0.0                 !
 ! D10   D(8,1,6,5)            176.9204         -DE/DX =    0.0                 !
 ! D11   D(8,1,6,15)           -60.1442         -DE/DX =    0.0                 !
 ! D12   D(8,1,6,16)            54.0602         -DE/DX =    0.0                 !
 ! D13   D(1,2,3,4)             -0.0003         -DE/DX =    0.0                 !
 ! D14   D(1,2,3,10)           169.7449         -DE/DX =    0.0                 !
 ! D15   D(9,2,3,4)           -169.7455         -DE/DX =    0.0                 !
 ! D16   D(9,2,3,10)            -0.0002         -DE/DX =    0.0                 !
 ! D17   D(2,3,4,5)             59.6272         -DE/DX =    0.0                 !
 ! D18   D(2,3,4,11)           -33.4749         -DE/DX =    0.0                 !
 ! D19   D(2,3,4,12)           170.2598         -DE/DX =    0.0                 !
 ! D20   D(10,3,4,5)          -109.9342         -DE/DX =    0.0                 !
 ! D21   D(10,3,4,11)          156.9638         -DE/DX =    0.0                 !
 ! D22   D(10,3,4,12)            0.6984         -DE/DX =    0.0                 !
 ! D23   D(3,4,5,6)            -52.0723         -DE/DX =    0.0                 !
 ! D24   D(3,4,5,13)          -175.0075         -DE/DX =    0.0                 !
 ! D25   D(3,4,5,14)            70.7878         -DE/DX =    0.0                 !
 ! D26   D(12,4,5,6)          -176.9215         -DE/DX =    0.0                 !
 ! D27   D(12,4,5,13)           60.1433         -DE/DX =    0.0                 !
 ! D28   D(12,4,5,14)          -54.0614         -DE/DX =    0.0                 !
 ! D29   D(3,4,11,13)          122.7352         -DE/DX =    0.0                 !
 ! D30   D(12,4,11,13)         -79.3508         -DE/DX =    0.0                 !
 ! D31   D(4,5,6,1)              0.0007         -DE/DX =    0.0                 !
 ! D32   D(4,5,6,7)            -26.1709         -DE/DX =    0.0                 !
 ! D33   D(4,5,6,15)          -102.0108         -DE/DX =    0.0                 !
 ! D34   D(4,5,6,16)           102.4726         -DE/DX =    0.0                 !
 ! D35   D(11,5,6,1)            26.172          -DE/DX =    0.0                 !
 ! D36   D(11,5,6,7)             0.0003         -DE/DX =    0.0                 !
 ! D37   D(11,5,6,15)          -75.8395         -DE/DX =    0.0                 !
 ! D38   D(11,5,6,16)          128.6439         -DE/DX =    0.0                 !
 ! D39   D(13,5,6,1)           102.0114         -DE/DX =    0.0                 !
 ! D40   D(13,5,6,7)            75.8398         -DE/DX =    0.0                 !
 ! D41   D(13,5,6,15)           -0.0001         -DE/DX =    0.0                 !
 ! D42   D(13,5,6,16)         -155.5166         -DE/DX =    0.0                 !
 ! D43   D(14,5,6,1)          -102.471          -DE/DX =    0.0                 !
 ! D44   D(14,5,6,7)          -128.6427         -DE/DX =    0.0                 !
 ! D45   D(14,5,6,15)          155.5175         -DE/DX =    0.0                 !
 ! D46   D(14,5,6,16)            0.0009         -DE/DX =    0.0                 !
 ! D47   D(13,5,11,4)          123.3593         -DE/DX =    0.0                 !
 --------------------------------------------------------------------------------
 GradGradGradGradGradGradGradGradGradGradGradGradGradGradGradGradGradGrad

                          Input orientation:                          
 ---------------------------------------------------------------------
 Center     Atomic      Atomic             Coordinates (Angstroms)
 Number     Number       Type             X           Y           Z
 ---------------------------------------------------------------------
      1          6           0       -0.671785    0.954106    0.107729
      2          6           0        0.033912   -0.173215   -0.259543
      3          6           0        1.445002   -0.174244   -0.252590
      4          6           0        2.148689    0.952052    0.121619
      5          6           0        1.419769    1.199528    2.091276
      6          6           0        0.038030    1.200546    2.084464
      7          1           0       -0.300047    1.953155   -0.097574
      8          1           0       -1.742966    0.916721    0.255136
      9          1           0       -0.483418   -1.122655   -0.394863
     10          1           0        1.962256   -1.124439   -0.382809
     11          1           0        1.780446    1.951639   -0.087327
     12          1           0        3.218309    0.913108    0.279577
     13          1           0        1.976141    2.124848    2.173014
     14          1           0        1.969846    0.321164    2.406706
     15          1           0       -0.517756    2.126686    2.160721
     16          1           0       -0.516425    0.323000    2.394464
 ---------------------------------------------------------------------
                    Distance matrix (angstroms):
                    1          2          3          4          5
     1  C    0.000000
     2  C    1.379765   0.000000
     3  C    2.425653   1.411107   0.000000
     4  C    2.820509   2.425653   1.379765   0.000000
     5  C    2.892972   3.054729   2.716909   2.114738   0.000000
     6  C    2.114722   2.716911   3.054741   2.892990   1.381756
     7  H    1.085558   2.158521   2.755912   2.654536   2.883884
     8  H    1.081922   2.147126   3.407511   3.894105   3.668007
     9  H    2.144999   1.089669   2.153725   3.391040   3.898146
    10  H    3.391040   2.153725   1.089669   2.144999   3.437472
    11  H    2.654535   2.755911   2.158521   1.085558   2.332825
    12  H    3.894103   3.407511   2.147127   1.081921   2.568859
    13  H    3.556339   3.869196   3.384004   2.369270   1.082796
    14  H    3.558669   3.331837   2.755494   2.377315   1.083330
    15  H    2.369270   3.384016   3.869208   3.556351   2.149058
    16  H    2.377307   2.755513   3.331868   3.558702   2.146874
                    6          7          8          9         10
     6  C    0.000000
     7  H    2.332811   0.000000
     8  H    2.568841   1.811246   0.000000
     9  H    3.437476   3.095580   2.483549   0.000000
    10  H    3.898159   3.830269   4.278081   2.445704   0.000000
    11  H    2.883892   2.080519   3.688193   3.830267   3.095581
    12  H    3.668026   3.688193   4.961336   4.278082   2.483551
    13  H    2.149058   3.219640   4.355408   4.815569   4.134040
    14  H    2.146874   3.753296   4.332310   3.993985   3.141851
    15  H    1.082797   2.275392   2.568347   4.134055   4.815581
    16  H    1.083331   2.985712   2.536460   3.141871   3.994019
                   11         12         13         14         15
    11  H    0.000000
    12  H    1.811247   0.000000
    13  H    2.275399   2.568345   0.000000
    14  H    2.985720   2.536481   1.818771   0.000000
    15  H    3.219642   4.355417   2.493928   3.083599   0.000000
    16  H    3.753314   4.332344   3.083599   2.486302   1.818769
                   16
    16  H    0.000000
 Symmetry turned off by external request.
 Stoichiometry    C6H10
 Framework group  C1[X(C6H10)]
 Deg. of freedom    42
 Full point group                 C1      NOp   1
 Rotational constants (GHZ):           4.3991528           3.8661940           2.4556566

 **********************************************************************

            Population analysis using the SCF Density.

 **********************************************************************

 Alpha  occ. eigenvalues --   -1.05766  -0.95267  -0.92622  -0.80596  -0.75184
 Alpha  occ. eigenvalues --   -0.65649  -0.61926  -0.58826  -0.53048  -0.51234
 Alpha  occ. eigenvalues --   -0.50175  -0.46229  -0.46105  -0.44022  -0.42925
 Alpha  occ. eigenvalues --   -0.32755  -0.32533
 Alpha virt. eigenvalues --    0.01732   0.03067   0.09826   0.18495   0.19366
 Alpha virt. eigenvalues --    0.20970   0.21010   0.21629   0.21823   0.22492
 Alpha virt. eigenvalues --    0.22901   0.23496   0.23825   0.23973   0.24445
 Alpha virt. eigenvalues --    0.24462   0.24928
          Condensed to atoms (all electrons):
               1          2          3          4          5          6
     1  C    4.268439   0.000000   0.000000   0.000000   0.000000   0.000000
     2  C    0.000000   4.153907   0.000000   0.000000   0.000000   0.000000
     3  C    0.000000   0.000000   4.153902   0.000000   0.000000   0.000000
     4  C    0.000000   0.000000   0.000000   4.268443   0.000000   0.000000
     5  C    0.000000   0.000000   0.000000   0.000000   4.280327   0.000000
     6  C    0.000000   0.000000   0.000000   0.000000   0.000000   4.280328
     7  H    0.000000   0.000000   0.000000   0.000000   0.000000   0.000000
     8  H    0.000000   0.000000   0.000000   0.000000   0.000000   0.000000
     9  H    0.000000   0.000000   0.000000   0.000000   0.000000   0.000000
    10  H    0.000000   0.000000   0.000000   0.000000   0.000000   0.000000
    11  H    0.000000   0.000000   0.000000   0.000000   0.000000   0.000000
    12  H    0.000000   0.000000   0.000000   0.000000   0.000000   0.000000
    13  H    0.000000   0.000000   0.000000   0.000000   0.000000   0.000000
    14  H    0.000000   0.000000   0.000000   0.000000   0.000000   0.000000
    15  H    0.000000   0.000000   0.000000   0.000000   0.000000   0.000000
    16  H    0.000000   0.000000   0.000000   0.000000   0.000000   0.000000
               7          8          9         10         11         12
     1  C    0.000000   0.000000   0.000000   0.000000   0.000000   0.000000
     2  C    0.000000   0.000000   0.000000   0.000000   0.000000   0.000000
     3  C    0.000000   0.000000   0.000000   0.000000   0.000000   0.000000
     4  C    0.000000   0.000000   0.000000   0.000000   0.000000   0.000000
     5  C    0.000000   0.000000   0.000000   0.000000   0.000000   0.000000
     6  C    0.000000   0.000000   0.000000   0.000000   0.000000   0.000000
     7  H    0.850794   0.000000   0.000000   0.000000   0.000000   0.000000
     8  H    0.000000   0.865341   0.000000   0.000000   0.000000   0.000000
     9  H    0.000000   0.000000   0.862497   0.000000   0.000000   0.000000
    10  H    0.000000   0.000000   0.000000   0.862497   0.000000   0.000000
    11  H    0.000000   0.000000   0.000000   0.000000   0.850794   0.000000
    12  H    0.000000   0.000000   0.000000   0.000000   0.000000   0.865340
    13  H    0.000000   0.000000   0.000000   0.000000   0.000000   0.000000
    14  H    0.000000   0.000000   0.000000   0.000000   0.000000   0.000000
    15  H    0.000000   0.000000   0.000000   0.000000   0.000000   0.000000
    16  H    0.000000   0.000000   0.000000   0.000000   0.000000   0.000000
              13         14         15         16
     1  C    0.000000   0.000000   0.000000   0.000000
     2  C    0.000000   0.000000   0.000000   0.000000
     3  C    0.000000   0.000000   0.000000   0.000000
     4  C    0.000000   0.000000   0.000000   0.000000
     5  C    0.000000   0.000000   0.000000   0.000000
     6  C    0.000000   0.000000   0.000000   0.000000
     7  H    0.000000   0.000000   0.000000   0.000000
     8  H    0.000000   0.000000   0.000000   0.000000
     9  H    0.000000   0.000000   0.000000   0.000000
    10  H    0.000000   0.000000   0.000000   0.000000
    11  H    0.000000   0.000000   0.000000   0.000000
    12  H    0.000000   0.000000   0.000000   0.000000
    13  H    0.862551   0.000000   0.000000   0.000000
    14  H    0.000000   0.856143   0.000000   0.000000
    15  H    0.000000   0.000000   0.862552   0.000000
    16  H    0.000000   0.000000   0.000000   0.856143
 Mulliken charges:
               1
     1  C   -0.268439
     2  C   -0.153907
     3  C   -0.153902
     4  C   -0.268443
     5  C   -0.280327
     6  C   -0.280328
     7  H    0.149206
     8  H    0.134659
     9  H    0.137503
    10  H    0.137503
    11  H    0.149206
    12  H    0.134660
    13  H    0.137449
    14  H    0.143857
    15  H    0.137448
    16  H    0.143857
 Sum of Mulliken charges =   0.00000
 Mulliken charges with hydrogens summed into heavy atoms:
               1
     1  C    0.015426
     2  C   -0.016404
     3  C   -0.016399
     4  C    0.015422
     5  C    0.000978
     6  C    0.000977
 Charge=              0.0000 electrons
 Dipole moment (field-independent basis, Debye):
    X=             -0.0016    Y=              0.3919    Z=              0.3885  Tot=              0.5518
 N-N= 1.440470027352D+02 E-N=-2.166860118799D+02  KE=-5.048504633948D+01
