 Default is to use a total of   8 processors:
                                8 via shared-memory
                                1 via Linda
 Entering Link 1 = C:\G16W\l1.exe PID=      8436.
  
 Copyright (c) 1988-2019, Gaussian, Inc.  All Rights Reserved.
  
 This is part of the Gaussian(R) 16 program.  It is based on
 the Gaussian(R) 09 system (copyright 2009, Gaussian, Inc.),
 the Gaussian(R) 03 system (copyright 2003, Gaussian, Inc.),
 the Gaussian(R) 98 system (copyright 1998, Gaussian, Inc.),
 the Gaussian(R) 94 system (copyright 1995, Gaussian, Inc.),
 the Gaussian 92(TM) system (copyright 1992, Gaussian, Inc.),
 the Gaussian 90(TM) system (copyright 1990, Gaussian, Inc.),
 the Gaussian 88(TM) system (copyright 1988, Gaussian, Inc.),
 the Gaussian 86(TM) system (copyright 1986, Carnegie Mellon
 University), and the Gaussian 82(TM) system (copyright 1983,
 Carnegie Mellon University). Gaussian is a federally registered
 trademark of Gaussian, Inc.
  
 This software contains proprietary and confidential information,
 including trade secrets, belonging to Gaussian, Inc.
  
 This software is provided under written license and may be
 used, copied, transmitted, or stored only in accord with that
 written license.
  
 The following legend is applicable only to US Government
 contracts under FAR:
  
                    RESTRICTED RIGHTS LEGEND
  
 Use, reproduction and disclosure by the US Government is
 subject to restrictions as set forth in subparagraphs (a)
 and (c) of the Commercial Computer Software - Restricted
 Rights clause in FAR 52.227-19.
  
 Gaussian, Inc.
 340 Quinnipiac St., Bldg. 40, Wallingford CT 06492
  
  
 ---------------------------------------------------------------
 Warning -- This program may not be used in any manner that
 competes with the business of Gaussian, Inc. or will provide
 assistance to any competitor of Gaussian, Inc.  The licensee
 of this program is prohibited from giving any competitor of
 Gaussian, Inc. access to this program.  By using this program,
 the user acknowledges that Gaussian, Inc. is engaged in the
 business of creating and licensing software in the field of
 computational chemistry and represents and warrants to the
 licensee that it is not a competitor of Gaussian, Inc. and that
 it will not use this program in any manner prohibited above.
 ---------------------------------------------------------------
  

 Cite this work as:
 Gaussian 16, Revision C.01,
 M. J. Frisch, G. W. Trucks, H. B. Schlegel, G. E. Scuseria, 
 M. A. Robb, J. R. Cheeseman, G. Scalmani, V. Barone, 
 G. A. Petersson, H. Nakatsuji, X. Li, M. Caricato, A. V. Marenich, 
 J. Bloino, B. G. Janesko, R. Gomperts, B. Mennucci, H. P. Hratchian, 
 J. V. Ortiz, A. F. Izmaylov, J. L. Sonnenberg, D. Williams-Young, 
 F. Ding, F. Lipparini, F. Egidi, J. Goings, B. Peng, A. Petrone, 
 T. Henderson, D. Ranasinghe, V. G. Zakrzewski, J. Gao, N. Rega, 
 G. Zheng, W. Liang, M. Hada, M. Ehara, K. Toyota, R. Fukuda, 
 J. Hasegawa, M. Ishida, T. Nakajima, Y. Honda, O. Kitao, H. Nakai, 
 T. Vreven, K. Throssell, J. A. Montgomery, Jr., J. E. Peralta, 
 F. Ogliaro, M. J. Bearpark, J. J. Heyd, E. N. Brothers, K. N. Kudin, 
 V. N. Staroverov, T. A. Keith, R. Kobayashi, J. Normand, 
 K. Raghavachari, A. P. Rendell, J. C. Burant, S. S. Iyengar, 
 J. Tomasi, M. Cossi, J. M. Millam, M. Klene, C. Adamo, R. Cammi, 
 J. W. Ochterski, R. L. Martin, K. Morokuma, O. Farkas, 
 J. B. Foresman, and D. J. Fox, Gaussian, Inc., Wallingford CT, 2019.
 
 ******************************************
 Gaussian 16:  EM64W-G16RevC.01 30-May-2019
                15-Nov-2025 
 ******************************************
 %chk=C:\Users\al6323\OneDrive - Imperial College London\Desktop\TSR20251115\Exer
 cise 3\DA reaction\product_exo_opt+freq.chk
 Default route: MaxDisk=10GB
 ----------------------------------------------------------------------
 # opt=(calcfc,tight,cartesian,maxstep=1) freq rpm6 nosymm geom=connect
 ivity scf=(tight,xqc)
 ----------------------------------------------------------------------
 1/7=10,8=1,10=4,18=10,26=1,38=1,57=2/1,3;
 2/12=2,15=1,17=6,18=5,29=2,40=1/2;
 3/5=2,25=1,41=3900000,71=2,116=1,140=1/1,2,3;
 4/35=1/1;
 5/5=2,8=3,13=1,32=2,35=1,38=5/2,8;
 8/6=4,10=90,11=11/1;
 11/6=1,8=1,9=11,15=111,16=1,31=1/1,2,10;
 10/6=1,13=1,31=1/2;
 6/7=2,8=2,9=2,10=2,28=1/1;
 7/7=1,10=1,25=1,30=1/1,2,3,16;
 1/7=10,8=1,10=4,18=10,26=1/3(2);
 2/15=1,29=1/2;
 99/12=1/99;
 2/15=1,29=1/2;
 3/5=2,25=1,41=3900000,71=1,116=1,135=20/1,2,3;
 4/5=5,16=3,35=1/1;
 5/5=2,8=3,13=1,32=2,35=1,38=5/2,8;
 7/7=1,30=1/1,2,3,16;
 1/7=10,8=1,18=10,26=1/3(-5);
 2/15=1,29=1/2;
 6/7=2,8=2,9=2,10=2,19=2,28=1/1;
 99/9=1,12=1/99;
 -------------------
 Title Card Required
 -------------------
 Symbolic Z-matrix:
 Charge =  0 Multiplicity = 1
 C                    -4.59622  -1.53023   0.47771 
 C                    -3.20519  -1.60253   0.42757 
 C                    -2.42853  -0.42972   0.39445 
 C                    -3.06501   0.82426   0.41878 
 C                    -4.4685    0.8843    0.47115 
 C                    -5.23097  -0.28245   0.49941 
 H                    -0.59403  -0.42959  -0.72045 
 H                    -5.18946  -2.44349   0.49882 
 H                    -2.71458  -2.57469   0.40685 
 C                    -0.94818  -0.53749   0.32768 
 C                    -2.32571   2.13741   0.38891 
 H                    -4.96828   1.85291   0.48703 
 H                    -6.31741  -0.22396   0.53717 
 H                    -2.63052   2.78112   1.24135 
 S                    -0.26274   0.79347   1.37021 
 O                     1.17898   0.84925   1.13474 
 O                    -0.90428   2.07054   0.39949 
 H                    -2.52982   2.68152  -0.56217 
 H                    -0.56341  -1.51822   0.65743 
 

 GradGradGradGradGradGradGradGradGradGradGradGradGradGradGradGradGradGrad
 Berny optimization.
 Initialization pass.
 No Z-matrix variables, so optimization will use Cartesian coordinates.
 Trust Radius=1.00D-02 FncErr=1.00D-07 GrdErr=1.00D-07 EigMax=2.50D+02 EigMin=1.00D-04
 Number of steps in this run=     67 maximum allowed number of steps=    114.
 GradGradGradGradGradGradGradGradGradGradGradGradGradGradGradGradGradGrad

 ---------------------------------------------------------------------------------------------------
                            Z-MATRIX (ANGSTROMS AND DEGREES)
   CD    Cent   Atom    N1       Length/X        N2       Alpha/Y        N3        Beta/Z          J
 ---------------------------------------------------------------------------------------------------
      1      1  C        0  -4.596223         -1.530234          0.477714
      2      2  C        0  -3.205188         -1.602534          0.427572
      3      3  C        0  -2.428531         -0.429722          0.394451
      4      4  C        0  -3.065010          0.824261          0.418776
      5      5  C        0  -4.468503          0.884300          0.471147
      6      6  C        0  -5.230966         -0.282446          0.499411
      7      7  H        0  -0.594028         -0.429594         -0.720448
      8      8  H        0  -5.189464         -2.443485          0.498823
      9      9  H        0  -2.714582         -2.574693          0.406853
     10     10  C        0  -0.948178         -0.537488          0.327684
     11     11  C        0  -2.325708          2.137410          0.388911
     12     12  H        0  -4.968282          1.852912          0.487034
     13     13  H        0  -6.317407         -0.223961          0.537171
     14     14  H        0  -2.630517          2.781123          1.241352
     15     15  S        0  -0.262736          0.793470          1.370212
     16     16  O        0   1.178976          0.849249          1.134736
     17     17  O        0  -0.904281          2.070540          0.399488
     18     18  H        0  -2.529822          2.681518         -0.562166
     19     19  H        0  -0.563407         -1.518215          0.657433
 ---------------------------------------------------------------------------------------------------
                         Z-Matrix orientation:                         
 ---------------------------------------------------------------------
 Center     Atomic      Atomic             Coordinates (Angstroms)
 Number     Number       Type             X           Y           Z
 ---------------------------------------------------------------------
      1          6           0       -4.596223   -1.530234    0.477714
      2          6           0       -3.205188   -1.602534    0.427572
      3          6           0       -2.428531   -0.429722    0.394451
      4          6           0       -3.065010    0.824261    0.418776
      5          6           0       -4.468503    0.884300    0.471147
      6          6           0       -5.230966   -0.282446    0.499411
      7          1           0       -0.594028   -0.429594   -0.720448
      8          1           0       -5.189464   -2.443485    0.498823
      9          1           0       -2.714582   -2.574693    0.406853
     10          6           0       -0.948178   -0.537488    0.327684
     11          6           0       -2.325708    2.137410    0.388911
     12          1           0       -4.968282    1.852912    0.487034
     13          1           0       -6.317407   -0.223961    0.537171
     14          1           0       -2.630517    2.781123    1.241352
     15         16           0       -0.262736    0.793470    1.370212
     16          8           0        1.178976    0.849249    1.134736
     17          8           0       -0.904281    2.070540    0.399488
     18          1           0       -2.529822    2.681518   -0.562166
     19          1           0       -0.563407   -1.518215    0.657433
 ---------------------------------------------------------------------
                    Distance matrix (angstroms):
                    1          2          3          4          5
     1  C    0.000000
     2  C    1.393815   0.000000
     3  C    2.432478   1.407048   0.000000
     4  C    2.809223   2.430856   1.406475   0.000000
     5  C    2.417919   2.789661   2.427761   1.405752   0.000000
     6  C    1.400123   2.419002   2.808265   2.433653   1.394075
     7  H    4.320251   3.084136   2.146718   2.995953   4.261194
     8  H    1.089223   2.156299   3.418901   3.898445   3.405100
     9  H    2.153251   1.089136   2.163996   3.416991   3.878789
    10  C    3.783687   2.497679   1.485771   2.518658   3.799310
    11  C    4.314480   3.842156   2.569196   1.507256   2.483669
    12  H    3.403556   3.879709   3.416039   2.164538   1.090064
    13  H    2.161564   3.405639   3.896930   3.419192   2.156629
    14  H    4.799473   4.495435   3.326795   2.166731   2.751244
    15  S    4.997526   3.909915   2.671886   2.959547   4.301749
    16  O    6.280648   5.072693   3.898447   4.304026   5.686439
    17  O    5.157725   4.334332   2.928254   2.494460   3.757123
    18  H    4.805229   4.448461   3.256561   2.167505   2.838347
    19  H    4.036836   2.653103   2.175468   3.435428   4.588742
                    6          7          8          9         10
     6  C    0.000000
     7  H    4.796969   0.000000
     8  H    2.161438   5.163372   0.000000
     9  H    3.405166   3.220094   2.480063   0.000000
    10  C    4.293812   1.111595   4.653023   2.697527   0.000000
    11  C    3.782649   3.289210   5.403497   4.728156   3.009389
    12  H    2.151490   5.079561   4.302103   4.968831   4.679812
    13  H    1.088669   5.863528   2.489983   4.303867   5.382454
    14  H    4.086351   4.278393   5.864818   5.421090   3.831218
    15  S    5.157442   2.444688   5.959014   4.275995   1.824320
    16  O    6.540010   2.867174   7.197465   5.235741   2.664424
    17  O    4.926127   2.757024   6.224875   4.985522   2.609385
    18  H    4.148278   3.667611   5.870694   5.347980   3.695326
    19  H    4.830963   1.756300   4.720347   2.409665   1.103906
                   11         12         13         14         15
    11  C    0.000000
    12  H    2.659654   0.000000
    13  H    4.640228   2.477106   0.000000
    14  H    1.110824   2.625970   4.808281   0.000000
    15  S    2.650468   4.903527   6.195818   3.094148   0.000000
    16  O    3.807679   6.262238   7.596355   4.272673   1.461880
    17  O    1.423038   4.070765   5.880954   2.047816   1.727655
    18  H    1.114569   2.780916   4.898587   1.809071   3.526825
    19  H    4.067112   5.549455   5.898989   4.806059   2.437693
                   16         17         18         19
    16  O    0.000000
    17  O    2.524302   0.000000
    18  H    4.471227   1.985058   0.000000
    19  H    2.978020   3.614124   4.794994   0.000000
 Symmetry turned off by external request.
 Stoichiometry    C8H8O2S
 Framework group  C1[X(C8H8O2S)]
 Deg. of freedom    51
 Full point group                 C1      NOp   1
 Rotational constants (GHZ):           2.3883150           0.6908407           0.5590681
 Standard basis: VSTO-6G (5D, 7F)
    57 basis functions,   348 primitive gaussians,    58 cartesian basis functions
    29 alpha electrons       29 beta electrons
       nuclear repulsion energy       339.8552233197 Hartrees.
 Integral buffers will be    131072 words long.
 Regular integral format.
 Two-electron integral symmetry is turned off.
 Do NDO integrals.
 One-electron integrals computed using PRISM.
 NBasis=    57 RedAO= F EigKep=  0.00D+00  NBF=    57
 NBsUse=    57 1.00D-04 EigRej=  0.00D+00 NBFU=    57
 Nonelectrostatic core Hamiltonian diagonalized for initial guess.
 Keep J ints in memory in canonical form, NReq=1859402.
 Overlap will be assumed to be unity.
 Requested convergence on RMS density matrix=1.00D-08 within  32 cycles.
 Requested convergence on MAX density matrix=1.00D-06.
 Requested convergence on             energy=1.00D-06.
 No special actions if energy rises.
 SCF Done:  E(RPM6) = -0.722256313359E-01 A.U. after   22 cycles
            NFock= 21  Conv=0.35D-08     -V/T= 0.9993
 QCSCF skips out because SCF is already converged.
 Range of M.O.s used for correlation:     1    57
 NBasis=    57 NAE=    29 NBE=    29 NFC=     0 NFV=     0
 NROrb=     57 NOA=    29 NOB=    29 NVA=    28 NVB=    28
 Symmetrizing basis deriv contribution to polar:
 IMax=3 JMax=2 DiffMx= 0.00D+00
 G2DrvN: will do    20 centers at a time, making    1 passes.
 Calling FoFCou, ICntrl=  3107 FMM=F I1Cent=   0 AccDes= 0.00D+00.
 End of G2Drv F.D. properties file   721 does not exist.
 End of G2Drv F.D. properties file   722 does not exist.
 End of G2Drv F.D. properties file   788 does not exist.
          IDoAtm=1111111111111111111
          Differentiating once with respect to nuclear coordinates.
          Electric field/nuclear overlap derivatives assumed to be zero.
 Keep J ints in memory in canonical form, NReq=1861376.
          There are    60 degrees of freedom in the 1st order CPHF.  IDoFFX=5 NUNeed=    60.
 LinEq1:  Iter=  0 NonCon=    57 RMS=1.25D-02 Max=9.66D-02 NDo=    57
 AX will form    60 AO Fock derivatives at one time.
 LinEq1:  Iter=  1 NonCon=    57 RMS=4.97D-03 Max=6.56D-02 NDo=    60
 LinEq1:  Iter=  2 NonCon=    57 RMS=1.14D-03 Max=1.04D-02 NDo=    60
 LinEq1:  Iter=  3 NonCon=    57 RMS=2.98D-04 Max=2.75D-03 NDo=    60
 LinEq1:  Iter=  4 NonCon=    57 RMS=6.57D-05 Max=7.15D-04 NDo=    60
 LinEq1:  Iter=  5 NonCon=    57 RMS=1.76D-05 Max=1.85D-04 NDo=    60
 LinEq1:  Iter=  6 NonCon=    57 RMS=5.21D-06 Max=7.80D-05 NDo=    60
 LinEq1:  Iter=  7 NonCon=    57 RMS=1.45D-06 Max=1.90D-05 NDo=    60
 LinEq1:  Iter=  8 NonCon=    54 RMS=3.84D-07 Max=4.24D-06 NDo=    60
 LinEq1:  Iter=  9 NonCon=    30 RMS=8.75D-08 Max=7.77D-07 NDo=    60
 LinEq1:  Iter= 10 NonCon=     9 RMS=2.01D-08 Max=1.73D-07 NDo=    30
 LinEq1:  Iter= 11 NonCon=     0 RMS=3.80D-09 Max=3.07D-08 NDo=     9
 Linear equations converged to 1.000D-08 1.000D-07 after    11 iterations.
 End of Minotr F.D. properties file   721 does not exist.
 End of Minotr F.D. properties file   722 does not exist.
 End of Minotr F.D. properties file   788 does not exist.

 **********************************************************************

            Population analysis using the SCF Density.

 **********************************************************************

 Alpha  occ. eigenvalues --   -1.15814  -1.11713  -1.07496  -1.00852  -0.98329
 Alpha  occ. eigenvalues --   -0.91749  -0.86292  -0.81070  -0.78983  -0.71367
 Alpha  occ. eigenvalues --   -0.65207  -0.61728  -0.59701  -0.59170  -0.57863
 Alpha  occ. eigenvalues --   -0.54983  -0.53404  -0.53182  -0.51784  -0.49451
 Alpha  occ. eigenvalues --   -0.48501  -0.46928  -0.45591  -0.45179  -0.41023
 Alpha  occ. eigenvalues --   -0.39641  -0.36941  -0.35574  -0.32471
 Alpha virt. eigenvalues --   -0.00609  -0.00496   0.00575   0.02886   0.04390
 Alpha virt. eigenvalues --    0.08119   0.10946   0.11665   0.13190   0.15286
 Alpha virt. eigenvalues --    0.16329   0.16591   0.16984   0.17546   0.18380
 Alpha virt. eigenvalues --    0.18519   0.19233   0.19717   0.19863   0.20087
 Alpha virt. eigenvalues --    0.20306   0.21102   0.21332   0.21468   0.21835
 Alpha virt. eigenvalues --    0.22226   0.23307   0.26452
          Condensed to atoms (all electrons):
               1          2          3          4          5          6
     1  C    4.115895   0.000000   0.000000   0.000000   0.000000   0.000000
     2  C    0.000000   4.200560   0.000000   0.000000   0.000000   0.000000
     3  C    0.000000   0.000000   3.905308   0.000000   0.000000   0.000000
     4  C    0.000000   0.000000   0.000000   4.116213   0.000000   0.000000
     5  C    0.000000   0.000000   0.000000   0.000000   4.138833   0.000000
     6  C    0.000000   0.000000   0.000000   0.000000   0.000000   4.159698
     7  H    0.000000   0.000000   0.000000   0.000000   0.000000   0.000000
     8  H    0.000000   0.000000   0.000000   0.000000   0.000000   0.000000
     9  H    0.000000   0.000000   0.000000   0.000000   0.000000   0.000000
    10  C    0.000000   0.000000   0.000000   0.000000   0.000000   0.000000
    11  C    0.000000   0.000000   0.000000   0.000000   0.000000   0.000000
    12  H    0.000000   0.000000   0.000000   0.000000   0.000000   0.000000
    13  H    0.000000   0.000000   0.000000   0.000000   0.000000   0.000000
    14  H    0.000000   0.000000   0.000000   0.000000   0.000000   0.000000
    15  S    0.000000   0.000000   0.000000   0.000000   0.000000   0.000000
    16  O    0.000000   0.000000   0.000000   0.000000   0.000000   0.000000
    17  O    0.000000   0.000000   0.000000   0.000000   0.000000   0.000000
    18  H    0.000000   0.000000   0.000000   0.000000   0.000000   0.000000
    19  H    0.000000   0.000000   0.000000   0.000000   0.000000   0.000000
               7          8          9         10         11         12
     1  C    0.000000   0.000000   0.000000   0.000000   0.000000   0.000000
     2  C    0.000000   0.000000   0.000000   0.000000   0.000000   0.000000
     3  C    0.000000   0.000000   0.000000   0.000000   0.000000   0.000000
     4  C    0.000000   0.000000   0.000000   0.000000   0.000000   0.000000
     5  C    0.000000   0.000000   0.000000   0.000000   0.000000   0.000000
     6  C    0.000000   0.000000   0.000000   0.000000   0.000000   0.000000
     7  H    0.787541   0.000000   0.000000   0.000000   0.000000   0.000000
     8  H    0.000000   0.852318   0.000000   0.000000   0.000000   0.000000
     9  H    0.000000   0.000000   0.844250   0.000000   0.000000   0.000000
    10  C    0.000000   0.000000   0.000000   4.615360   0.000000   0.000000
    11  C    0.000000   0.000000   0.000000   0.000000   4.005360   0.000000
    12  H    0.000000   0.000000   0.000000   0.000000   0.000000   0.851222
    13  H    0.000000   0.000000   0.000000   0.000000   0.000000   0.000000
    14  H    0.000000   0.000000   0.000000   0.000000   0.000000   0.000000
    15  S    0.000000   0.000000   0.000000   0.000000   0.000000   0.000000
    16  O    0.000000   0.000000   0.000000   0.000000   0.000000   0.000000
    17  O    0.000000   0.000000   0.000000   0.000000   0.000000   0.000000
    18  H    0.000000   0.000000   0.000000   0.000000   0.000000   0.000000
    19  H    0.000000   0.000000   0.000000   0.000000   0.000000   0.000000
              13         14         15         16         17         18
     1  C    0.000000   0.000000   0.000000   0.000000   0.000000   0.000000
     2  C    0.000000   0.000000   0.000000   0.000000   0.000000   0.000000
     3  C    0.000000   0.000000   0.000000   0.000000   0.000000   0.000000
     4  C    0.000000   0.000000   0.000000   0.000000   0.000000   0.000000
     5  C    0.000000   0.000000   0.000000   0.000000   0.000000   0.000000
     6  C    0.000000   0.000000   0.000000   0.000000   0.000000   0.000000
     7  H    0.000000   0.000000   0.000000   0.000000   0.000000   0.000000
     8  H    0.000000   0.000000   0.000000   0.000000   0.000000   0.000000
     9  H    0.000000   0.000000   0.000000   0.000000   0.000000   0.000000
    10  C    0.000000   0.000000   0.000000   0.000000   0.000000   0.000000
    11  C    0.000000   0.000000   0.000000   0.000000   0.000000   0.000000
    12  H    0.000000   0.000000   0.000000   0.000000   0.000000   0.000000
    13  H    0.848755   0.000000   0.000000   0.000000   0.000000   0.000000
    14  H    0.000000   0.868915   0.000000   0.000000   0.000000   0.000000
    15  S    0.000000   0.000000   4.785933   0.000000   0.000000   0.000000
    16  O    0.000000   0.000000   0.000000   6.660041   0.000000   0.000000
    17  O    0.000000   0.000000   0.000000   0.000000   6.593916   0.000000
    18  H    0.000000   0.000000   0.000000   0.000000   0.000000   0.840964
    19  H    0.000000   0.000000   0.000000   0.000000   0.000000   0.000000
              19
     1  C    0.000000
     2  C    0.000000
     3  C    0.000000
     4  C    0.000000
     5  C    0.000000
     6  C    0.000000
     7  H    0.000000
     8  H    0.000000
     9  H    0.000000
    10  C    0.000000
    11  C    0.000000
    12  H    0.000000
    13  H    0.000000
    14  H    0.000000
    15  S    0.000000
    16  O    0.000000
    17  O    0.000000
    18  H    0.000000
    19  H    0.808917
 Mulliken charges:
               1
     1  C   -0.115895
     2  C   -0.200560
     3  C    0.094692
     4  C   -0.116213
     5  C   -0.138833
     6  C   -0.159698
     7  H    0.212459
     8  H    0.147682
     9  H    0.155750
    10  C   -0.615360
    11  C   -0.005360
    12  H    0.148778
    13  H    0.151245
    14  H    0.131085
    15  S    1.214067
    16  O   -0.660041
    17  O   -0.593916
    18  H    0.159036
    19  H    0.191083
 Sum of Mulliken charges =   0.00000
 Mulliken charges with hydrogens summed into heavy atoms:
               1
     1  C    0.031787
     2  C   -0.044811
     3  C    0.094692
     4  C   -0.116213
     5  C    0.009945
     6  C   -0.008453
    10  C   -0.211818
    11  C    0.284762
    15  S    1.214067
    16  O   -0.660041
    17  O   -0.593916
 APT charges:
               1
     1  C   -0.115895
     2  C   -0.200560
     3  C    0.094692
     4  C   -0.116213
     5  C   -0.138833
     6  C   -0.159698
     7  H    0.212459
     8  H    0.147682
     9  H    0.155750
    10  C   -0.615360
    11  C   -0.005360
    12  H    0.148778
    13  H    0.151245
    14  H    0.131085
    15  S    1.214067
    16  O   -0.660041
    17  O   -0.593916
    18  H    0.159036
    19  H    0.191083
 Sum of APT charges =   0.00000
 APT charges with hydrogens summed into heavy atoms:
               1
     1  C    0.031787
     2  C   -0.044811
     3  C    0.094692
     4  C   -0.116213
     5  C    0.009945
     6  C   -0.008453
    10  C   -0.211818
    11  C    0.284762
    15  S    1.214067
    16  O   -0.660041
    17  O   -0.593916
 Charge=              0.0000 electrons
 Dipole moment (field-independent basis, Debye):
    X=             -4.3613    Y=             -1.9613    Z=              1.0467  Tot=              4.8952
 N-N= 3.398552233197D+02 E-N=-5.324007638359D+02  KE=-1.098143510004D+02
  Exact polarizability:       0.000       0.000       0.000       0.000       0.000       0.000
 Approx polarizability:     108.486       0.102      93.119       3.548      -1.618      27.021
 Calling FoFJK, ICntrl=    100127 FMM=F ISym2X=0 I1Cent= 0 IOpClX= 0 NMat=1 NMatS=1 NMatT=0.
 -------------------------------------------------------------------
 Center     Atomic                   Forces (Hartrees/Bohr)
 Number     Number              X              Y              Z
 -------------------------------------------------------------------
      1        6           0.000001319   -0.000001465   -0.000000051
      2        6          -0.000001675   -0.000000018    0.000000318
      3        6           0.000001323   -0.000000117   -0.000000060
      4        6           0.000000100   -0.000001807    0.000000360
      5        6          -0.000001485   -0.000000526    0.000000151
      6        6          -0.000000944    0.000001480   -0.000000058
      7        1           0.000000595    0.000000652    0.000000607
      8        1           0.000000353    0.000001072    0.000000079
      9        1           0.000000094    0.000000687   -0.000000299
     10        6          -0.000001080   -0.000003077    0.000000297
     11        6           0.000003698    0.000000790   -0.000000298
     12        1           0.000000450   -0.000000502   -0.000000179
     13        1           0.000001210   -0.000000352   -0.000000051
     14        1           0.000000123    0.000000171   -0.000000847
     15       16           0.000002708    0.000003201   -0.000001880
     16        8          -0.000003048   -0.000000611    0.000000526
     17        8          -0.000001682   -0.000001570    0.000001776
     18        1          -0.000000853    0.000000358    0.000000531
     19        1          -0.000001206    0.000001633   -0.000000923
 -------------------------------------------------------------------
 Cartesian Forces:  Max     0.000003698 RMS     0.000001285

 GradGradGradGradGradGradGradGradGradGradGradGradGradGradGradGradGradGrad
 Berny optimization.
 Search for a local minimum.
 Step number   1 out of a maximum of   67
 All quantities printed in internal units (Hartrees-Bohrs-Radians)
 Second derivative matrix not updated -- analytic derivatives used.
 ITU=  0
     Eigenvalues ---    0.00032   0.00180   0.00360   0.00636   0.01458
     Eigenvalues ---    0.01551   0.01571   0.02417   0.02700   0.03371
     Eigenvalues ---    0.04271   0.04597   0.04865   0.05319   0.05366
     Eigenvalues ---    0.05610   0.05837   0.07028   0.07423   0.08541
     Eigenvalues ---    0.10193   0.10254   0.12123   0.12316   0.13077
     Eigenvalues ---    0.13320   0.18205   0.21194   0.21679   0.22216
     Eigenvalues ---    0.22795   0.29649   0.32139   0.34434   0.40115
     Eigenvalues ---    0.44198   0.48111   0.50368   0.54824   0.56265
     Eigenvalues ---    0.56913   0.59141   0.61932   0.68387   0.77082
     Eigenvalues ---    0.94148   0.95293   1.01364   1.04087   1.22462
     Eigenvalues ---    1.23460
 RFO step:  Lambda= 0.00000000D+00 EMin= 3.18665000D-04
 Linear search not attempted -- first point.
 B after Tr=     0.000000   -0.000003    0.000010
         Rot=    1.000000    0.000000    0.000001    0.000000 Ang=   0.00 deg.
 Variable       Old X    -DE/DX   Delta X   Delta X   Delta X     New X
                                 (Linear)    (Quad)   (Total)
    X1       -8.68560   0.00000   0.00000   0.00000   0.00000  -8.68560
    Y1       -2.89172   0.00000   0.00000   0.00000   0.00000  -2.89173
    Z1        0.90275   0.00000   0.00000   0.00001   0.00001   0.90276
    X2       -6.05693   0.00000   0.00000   0.00000   0.00000  -6.05693
    Y2       -3.02835   0.00000   0.00000   0.00000   0.00000  -3.02835
    Z2        0.80799   0.00000   0.00000  -0.00001  -0.00001   0.80798
    X3       -4.58926   0.00000   0.00000   0.00000   0.00000  -4.58926
    Y3       -0.81206   0.00000   0.00000   0.00000   0.00000  -0.81206
    Z3        0.74540   0.00000   0.00000  -0.00001  -0.00001   0.74539
    X4       -5.79203   0.00000   0.00000   0.00000   0.00000  -5.79203
    Y4        1.55763   0.00000   0.00000   0.00000  -0.00001   1.55762
    Z4        0.79137   0.00000   0.00000   0.00000   0.00000   0.79137
    X5       -8.44425   0.00000   0.00000   0.00000   0.00000  -8.44425
    Y5        1.67109   0.00000   0.00000   0.00000   0.00000   1.67108
    Z5        0.89034   0.00000   0.00000   0.00001   0.00001   0.89035
    X6       -9.88509   0.00000   0.00000   0.00000   0.00000  -9.88509
    Y6       -0.53375   0.00000   0.00000   0.00000   0.00000  -0.53374
    Z6        0.94375   0.00000   0.00000   0.00002   0.00002   0.94377
    X7       -1.12255   0.00000   0.00000   0.00002   0.00002  -1.12253
    Y7       -0.81182   0.00000   0.00000   0.00005   0.00005  -0.81176
    Z7       -1.36145   0.00000   0.00000   0.00000   0.00000  -1.36144
    X8       -9.80666   0.00000   0.00000   0.00000   0.00000  -9.80667
    Y8       -4.61752   0.00000   0.00000   0.00001   0.00001  -4.61751
    Z8        0.94264   0.00000   0.00000   0.00002   0.00002   0.94266
    X9       -5.12982   0.00000   0.00000   0.00001   0.00000  -5.12981
    Y9       -4.86546   0.00000   0.00000   0.00000   0.00000  -4.86546
    Z9        0.76884   0.00000   0.00000  -0.00003  -0.00004   0.76881
   X10       -1.79180   0.00000   0.00000   0.00000   0.00000  -1.79180
   Y10       -1.01571   0.00000   0.00000   0.00000   0.00000  -1.01571
   Z10        0.61923   0.00000   0.00000  -0.00002  -0.00001   0.61922
   X11       -4.39495   0.00000   0.00000   0.00001   0.00001  -4.39494
   Y11        4.03912   0.00000   0.00000   0.00000   0.00000   4.03911
   Z11        0.73494   0.00000   0.00000  -0.00003  -0.00002   0.73492
   X12       -9.38869   0.00000   0.00000   0.00001   0.00001  -9.38868
   Y12        3.50150   0.00000   0.00000   0.00000   0.00000   3.50149
   Z12        0.92036   0.00000   0.00000   0.00001   0.00001   0.92037
   X13      -11.93817   0.00000   0.00000   0.00001   0.00001 -11.93816
   Y13       -0.42323   0.00000   0.00000  -0.00001  -0.00001  -0.42323
   Z13        1.01511   0.00000   0.00000   0.00004   0.00003   1.01514
   X14       -4.97096   0.00000   0.00000  -0.00003  -0.00003  -4.97098
   Y14        5.25556   0.00000   0.00000   0.00004   0.00004   5.25560
   Z14        2.34582   0.00000   0.00000  -0.00007  -0.00006   2.34575
   X15       -0.49650   0.00000   0.00000  -0.00001  -0.00001  -0.49651
   Y15        1.49944   0.00000   0.00000   0.00000  -0.00001   1.49943
   Z15        2.58932   0.00000   0.00000   0.00001   0.00002   2.58935
   X16        2.22794   0.00000   0.00000  -0.00001  -0.00002   2.22793
   Y16        1.60485   0.00000   0.00000  -0.00002  -0.00003   1.60482
   Z16        2.14434   0.00000   0.00000   0.00003   0.00004   2.14438
   X17       -1.70884   0.00000   0.00000   0.00000   0.00000  -1.70884
   Y17        3.91275   0.00000   0.00000   0.00001   0.00000   3.91276
   Z17        0.75492   0.00000   0.00000   0.00004   0.00005   0.75497
   X18       -4.78067   0.00000   0.00000   0.00002   0.00003  -4.78065
   Y18        5.06733   0.00000   0.00000  -0.00004  -0.00004   5.06730
   Z18       -1.06234   0.00000   0.00000  -0.00005  -0.00004  -1.06238
   X19       -1.06469   0.00000   0.00000  -0.00001  -0.00001  -1.06469
   Y19       -2.86901   0.00000   0.00000   0.00000   0.00000  -2.86901
   Z19        1.24237   0.00000   0.00000  -0.00005  -0.00004   1.24232
         Item               Value     Threshold  Converged?
 Maximum Force            0.000004     0.000015     YES
 RMS     Force            0.000001     0.000010     YES
 Maximum Displacement     0.000064     0.000060     NO 
 RMS     Displacement     0.000021     0.000040     YES
 Predicted change in Energy=-1.266965D-10
 GradGradGradGradGradGradGradGradGradGradGradGradGradGradGradGradGradGrad

                          Input orientation:                          
 ---------------------------------------------------------------------
 Center     Atomic      Atomic             Coordinates (Angstroms)
 Number     Number       Type             X           Y           Z
 ---------------------------------------------------------------------
      1          6           0       -4.596222   -1.530236    0.477719
      2          6           0       -3.205190   -1.602536    0.427567
      3          6           0       -2.428530   -0.429724    0.394446
      4          6           0       -3.065009    0.824258    0.418777
      5          6           0       -4.468503    0.884299    0.471155
      6          6           0       -5.230966   -0.282445    0.499422
      7          1           0       -0.594018   -0.429566   -0.720445
      8          1           0       -5.189465   -2.443482    0.498832
      9          1           0       -2.714580   -2.574692    0.406835
     10          6           0       -0.948180   -0.537488    0.327679
     11          6           0       -2.325704    2.137408    0.388901
     12          1           0       -4.968277    1.852911    0.487040
     13          1           0       -6.317404   -0.223965    0.537188
     14          1           0       -2.630532    2.781142    1.241318
     15         16           0       -0.262742    0.793466    1.370225
     16          8           0        1.178967    0.849235    1.134758
     17          8           0       -0.904281    2.070542    0.399515
     18          1           0       -2.529809    2.681499   -0.562188
     19          1           0       -0.563412   -1.518216    0.657410
 ---------------------------------------------------------------------
                    Distance matrix (angstroms):
                    1          2          3          4          5
     1  C    0.000000
     2  C    1.393812   0.000000
     3  C    2.432478   1.407049   0.000000
     4  C    2.809222   2.430855   1.406473   0.000000
     5  C    2.417919   2.789660   2.427762   1.405754   0.000000
     6  C    1.400126   2.419002   2.808266   2.433653   1.394073
     7  H    4.320267   3.084154   2.146722   2.995946   4.261195
     8  H    1.089221   2.156297   3.418901   3.898442   3.405096
     9  H    2.153251   1.089135   2.163993   3.416987   3.878788
    10  C    3.783685   2.497679   1.485769   2.518653   3.799307
    11  C    4.314481   3.842157   2.569196   1.507258   2.483673
    12  H    3.403556   3.879707   3.416037   2.164537   1.090063
    13  H    2.161561   3.405635   3.896928   3.419191   2.156628
    14  H    4.799478   4.495448   3.326808   2.166734   2.751236
    15  S    4.997520   3.909914   2.671886   2.959543   4.301743
    16  O    6.280636   5.072685   3.898440   4.304019   5.686432
    17  O    5.157726   4.334336   2.928257   2.494461   3.757124
    18  H    4.805224   4.448450   3.256549   2.167505   2.838355
    19  H    4.036829   2.653098   2.175462   3.435421   4.588737
                    6          7          8          9         10
     6  C    0.000000
     7  H    4.796978   0.000000
     8  H    2.161436   5.163393   0.000000
     9  H    3.405167   3.220109   2.480068   0.000000
    10  C    4.293809   1.111594   4.653022   2.697524   0.000000
    11  C    3.782650   3.289185   5.403495   4.728152   3.009383
    12  H    2.151489   5.079554   4.302099   4.968828   4.679806
    13  H    1.088666   5.863536   2.489975   4.303864   5.382449
    14  H    4.086347   4.278381   5.864821   5.421105   3.831233
    15  S    5.157434   2.444678   5.959007   4.275993   1.824326
    16  O    6.539999   2.867157   7.197452   5.235729   2.664419
    17  O    4.926127   2.757011   6.224876   4.985522   2.609388
    18  H    4.148280   3.667568   5.870687   5.347961   3.695306
    19  H    4.830958   1.756297   4.720343   2.409658   1.103901
                   11         12         13         14         15
    11  C    0.000000
    12  H    2.659654   0.000000
    13  H    4.640230   2.477109   0.000000
    14  H    1.110823   2.625947   4.808273   0.000000
    15  S    2.650469   4.903519   6.195808   3.094171   0.000000
    16  O    3.807678   6.262230   7.596343   4.272693   1.461876
    17  O    1.423035   4.070760   5.880953   2.047810   1.727649
    18  H    1.114569   2.780929   4.898594   1.809063   3.526822
    19  H    4.067107   5.549447   5.898980   4.806081   2.437701
                   16         17         18         19
    16  O    0.000000
    17  O    2.524301   0.000000
    18  H    4.471223   1.985064   0.000000
    19  H    2.978015   3.614123   4.794971   0.000000
 Symmetry turned off by external request.
 Stoichiometry    C8H8O2S
 Framework group  C1[X(C8H8O2S)]
 Deg. of freedom    51
 Full point group                 C1      NOp   1
 Rotational constants (GHZ):           2.3883103           0.6908420           0.5590692
 Standard basis: VSTO-6G (5D, 7F)
    57 basis functions,   348 primitive gaussians,    58 cartesian basis functions
    29 alpha electrons       29 beta electrons
       nuclear repulsion energy       339.8553554529 Hartrees.
 Integral buffers will be    131072 words long.
 Regular integral format.
 Two-electron integral symmetry is turned off.
 Do NDO integrals.
 One-electron integrals computed using PRISM.
 NBasis=    57 RedAO= F EigKep=  0.00D+00  NBF=    57
 NBsUse=    57 1.00D-04 EigRej=  0.00D+00 NBFU=    57
 Initial guess from the checkpoint file:  "C:\Users\al6323\OneDrive - Imperial College London\Desktop\TSR20251115\Exercise 3\DA reaction\product_exo_opt+freq.chk"
 B after Tr=    -0.000001   -0.000004    0.000018
         Rot=    1.000000   -0.000001    0.000001    0.000000 Ang=   0.00 deg.
 Keep J ints in memory in canonical form, NReq=1859402.
 Overlap will be assumed to be unity.
 Requested convergence on RMS density matrix=1.00D-08 within  32 cycles.
 Requested convergence on MAX density matrix=1.00D-06.
 Requested convergence on             energy=1.00D-06.
 No special actions if energy rises.
 SCF Done:  E(RPM6) = -0.722256314634E-01 A.U. after    8 cycles
            NFock=  7  Conv=0.93D-08     -V/T= 0.9993
 QCSCF skips out because SCF is already converged.
 Calling FoFJK, ICntrl=      2127 FMM=F ISym2X=0 I1Cent= 0 IOpClX= 0 NMat=1 NMatS=1 NMatT=0.
 -------------------------------------------------------------------
 Center     Atomic                   Forces (Hartrees/Bohr)
 Number     Number              X              Y              Z
 -------------------------------------------------------------------
      1        6          -0.000000033    0.000000020    0.000000002
      2        6           0.000000035    0.000000019   -0.000000002
      3        6          -0.000000002   -0.000000038    0.000000000
      4        6          -0.000000034    0.000000019   -0.000000001
      5        6           0.000000033    0.000000019    0.000000000
      6        6          -0.000000001   -0.000000038    0.000000002
      7        1           0.000000001   -0.000000001    0.000000000
      8        1           0.000000000    0.000000000    0.000000001
      9        1           0.000000000    0.000000000   -0.000000001
     10        6           0.000000004   -0.000000003   -0.000000004
     11        6           0.000000002   -0.000000001   -0.000000002
     12        1           0.000000000   -0.000000001    0.000000000
     13        1           0.000000000    0.000000000    0.000000002
     14        1           0.000000002   -0.000000001    0.000000001
     15       16          -0.000000005    0.000000008   -0.000000003
     16        8           0.000000002   -0.000000005    0.000000000
     17        8          -0.000000001    0.000000002    0.000000004
     18        1          -0.000000002    0.000000001    0.000000001
     19        1          -0.000000001   -0.000000001    0.000000000
 -------------------------------------------------------------------
 Cartesian Forces:  Max     0.000000038 RMS     0.000000013

 GradGradGradGradGradGradGradGradGradGradGradGradGradGradGradGradGradGrad
 Berny optimization.
 Search for a local minimum.
 Step number   2 out of a maximum of   67
 All quantities printed in internal units (Hartrees-Bohrs-Radians)
 Update second derivatives using D2CorN and points    2
 DE= -1.27D-10 DEPred=-1.27D-10 R= 1.01D+00
 Trust test= 1.01D+00 RLast= 1.61D-04 DXMaxT set to 5.00D-02
 ITU=  0  0
     Eigenvalues ---    0.00032   0.00180   0.00360   0.00636   0.01458
     Eigenvalues ---    0.01551   0.01571   0.02417   0.02700   0.03371
     Eigenvalues ---    0.04271   0.04597   0.04865   0.05319   0.05366
     Eigenvalues ---    0.05610   0.05837   0.07028   0.07423   0.08541
     Eigenvalues ---    0.10193   0.10254   0.12123   0.12316   0.13077
     Eigenvalues ---    0.13320   0.18205   0.21194   0.21679   0.22216
     Eigenvalues ---    0.22795   0.29649   0.32139   0.34434   0.40115
     Eigenvalues ---    0.44198   0.48111   0.50368   0.54824   0.56265
     Eigenvalues ---    0.56913   0.59141   0.61932   0.68387   0.77082
     Eigenvalues ---    0.94148   0.95293   1.01364   1.04087   1.22462
     Eigenvalues ---    1.23460
 RFO step:  Lambda= 0.00000000D+00 EMin= 3.18665033D-04
 Quartic linear search produced a step of -0.00134.
 B after Tr=     0.000000    0.000000    0.000000
         Rot=    1.000000    0.000000    0.000000    0.000000 Ang=   0.00 deg.
 Variable       Old X    -DE/DX   Delta X   Delta X   Delta X     New X
                                 (Linear)    (Quad)   (Total)
    X1       -8.68560   0.00000   0.00000   0.00000   0.00000  -8.68560
    Y1       -2.89173   0.00000   0.00000   0.00000   0.00000  -2.89173
    Z1        0.90276   0.00000   0.00000   0.00000   0.00000   0.90276
    X2       -6.05693   0.00000   0.00000   0.00000   0.00000  -6.05693
    Y2       -3.02835   0.00000   0.00000   0.00000   0.00000  -3.02835
    Z2        0.80798   0.00000   0.00000   0.00000   0.00000   0.80798
    X3       -4.58926   0.00000   0.00000   0.00000   0.00000  -4.58926
    Y3       -0.81206   0.00000   0.00000   0.00000   0.00000  -0.81206
    Z3        0.74539   0.00000   0.00000   0.00000   0.00000   0.74539
    X4       -5.79203   0.00000   0.00000   0.00000   0.00000  -5.79203
    Y4        1.55762   0.00000   0.00000   0.00000   0.00000   1.55762
    Z4        0.79137   0.00000   0.00000   0.00000   0.00000   0.79137
    X5       -8.44425   0.00000   0.00000   0.00000   0.00000  -8.44425
    Y5        1.67108   0.00000   0.00000   0.00000   0.00000   1.67108
    Z5        0.89035   0.00000   0.00000   0.00000   0.00000   0.89035
    X6       -9.88509   0.00000   0.00000   0.00000   0.00000  -9.88509
    Y6       -0.53374   0.00000   0.00000   0.00000   0.00000  -0.53374
    Z6        0.94377   0.00000   0.00000   0.00000   0.00000   0.94377
    X7       -1.12253   0.00000   0.00000   0.00000   0.00000  -1.12253
    Y7       -0.81176   0.00000   0.00000   0.00000   0.00000  -0.81176
    Z7       -1.36144   0.00000   0.00000   0.00000   0.00000  -1.36144
    X8       -9.80667   0.00000   0.00000   0.00000   0.00000  -9.80667
    Y8       -4.61751   0.00000   0.00000   0.00000   0.00000  -4.61751
    Z8        0.94266   0.00000   0.00000   0.00000   0.00000   0.94266
    X9       -5.12981   0.00000   0.00000   0.00000   0.00000  -5.12981
    Y9       -4.86546   0.00000   0.00000   0.00000   0.00000  -4.86546
    Z9        0.76881   0.00000   0.00000   0.00000   0.00000   0.76881
   X10       -1.79180   0.00000   0.00000   0.00000   0.00000  -1.79180
   Y10       -1.01571   0.00000   0.00000   0.00000   0.00000  -1.01571
   Z10        0.61922   0.00000   0.00000   0.00000   0.00000   0.61922
   X11       -4.39494   0.00000   0.00000   0.00000   0.00000  -4.39494
   Y11        4.03911   0.00000   0.00000   0.00000   0.00000   4.03911
   Z11        0.73492   0.00000   0.00000   0.00000   0.00000   0.73492
   X12       -9.38868   0.00000   0.00000   0.00000   0.00000  -9.38868
   Y12        3.50149   0.00000   0.00000   0.00000   0.00000   3.50149
   Z12        0.92037   0.00000   0.00000   0.00000   0.00000   0.92037
   X13      -11.93816   0.00000   0.00000   0.00000   0.00000 -11.93816
   Y13       -0.42323   0.00000   0.00000   0.00000   0.00000  -0.42323
   Z13        1.01514   0.00000   0.00000   0.00000   0.00000   1.01514
   X14       -4.97098   0.00000   0.00000   0.00000   0.00000  -4.97099
   Y14        5.25560   0.00000   0.00000   0.00000   0.00000   5.25560
   Z14        2.34575   0.00000   0.00000   0.00000   0.00000   2.34575
   X15       -0.49651   0.00000   0.00000   0.00000   0.00000  -0.49651
   Y15        1.49943   0.00000   0.00000   0.00000   0.00000   1.49943
   Z15        2.58935   0.00000   0.00000   0.00000   0.00000   2.58935
   X16        2.22793   0.00000   0.00000   0.00000   0.00000   2.22792
   Y16        1.60482   0.00000   0.00000   0.00000   0.00000   1.60482
   Z16        2.14438   0.00000   0.00000   0.00000   0.00000   2.14438
   X17       -1.70884   0.00000   0.00000   0.00000   0.00000  -1.70884
   Y17        3.91276   0.00000   0.00000   0.00000   0.00000   3.91276
   Z17        0.75497   0.00000   0.00000   0.00000   0.00000   0.75497
   X18       -4.78065   0.00000   0.00000   0.00000   0.00000  -4.78065
   Y18        5.06730   0.00000   0.00000   0.00000   0.00000   5.06730
   Z18       -1.06238   0.00000   0.00000   0.00000   0.00000  -1.06238
   X19       -1.06469   0.00000   0.00000   0.00000   0.00000  -1.06469
   Y19       -2.86901   0.00000   0.00000   0.00000   0.00000  -2.86901
   Z19        1.24232   0.00000   0.00000   0.00000   0.00000   1.24232
         Item               Value     Threshold  Converged?
 Maximum Force            0.000000     0.000015     YES
 RMS     Force            0.000000     0.000010     YES
 Maximum Displacement     0.000001     0.000060     YES
 RMS     Displacement     0.000000     0.000040     YES
 Predicted change in Energy=-1.001096D-14
 Optimization completed.
    -- Stationary point found.
 GradGradGradGradGradGradGradGradGradGradGradGradGradGradGradGradGradGrad

                          Input orientation:                          
 ---------------------------------------------------------------------
 Center     Atomic      Atomic             Coordinates (Angstroms)
 Number     Number       Type             X           Y           Z
 ---------------------------------------------------------------------
      1          6           0       -4.596222   -1.530236    0.477719
      2          6           0       -3.205190   -1.602536    0.427567
      3          6           0       -2.428530   -0.429724    0.394446
      4          6           0       -3.065009    0.824258    0.418777
      5          6           0       -4.468503    0.884299    0.471155
      6          6           0       -5.230966   -0.282445    0.499422
      7          1           0       -0.594018   -0.429566   -0.720445
      8          1           0       -5.189465   -2.443482    0.498832
      9          1           0       -2.714580   -2.574692    0.406835
     10          6           0       -0.948180   -0.537488    0.327679
     11          6           0       -2.325704    2.137408    0.388901
     12          1           0       -4.968277    1.852911    0.487040
     13          1           0       -6.317404   -0.223965    0.537188
     14          1           0       -2.630532    2.781142    1.241318
     15         16           0       -0.262742    0.793466    1.370225
     16          8           0        1.178967    0.849235    1.134758
     17          8           0       -0.904281    2.070542    0.399515
     18          1           0       -2.529809    2.681499   -0.562188
     19          1           0       -0.563412   -1.518216    0.657410
 ---------------------------------------------------------------------
                    Distance matrix (angstroms):
                    1          2          3          4          5
     1  C    0.000000
     2  C    1.393812   0.000000
     3  C    2.432478   1.407049   0.000000
     4  C    2.809222   2.430855   1.406473   0.000000
     5  C    2.417919   2.789660   2.427762   1.405754   0.000000
     6  C    1.400126   2.419002   2.808266   2.433653   1.394073
     7  H    4.320267   3.084154   2.146722   2.995946   4.261195
     8  H    1.089221   2.156297   3.418901   3.898442   3.405096
     9  H    2.153251   1.089135   2.163993   3.416987   3.878788
    10  C    3.783685   2.497679   1.485769   2.518653   3.799307
    11  C    4.314481   3.842157   2.569196   1.507258   2.483673
    12  H    3.403556   3.879707   3.416037   2.164537   1.090063
    13  H    2.161561   3.405635   3.896928   3.419191   2.156628
    14  H    4.799478   4.495448   3.326808   2.166734   2.751236
    15  S    4.997520   3.909914   2.671886   2.959543   4.301743
    16  O    6.280636   5.072685   3.898440   4.304019   5.686432
    17  O    5.157726   4.334336   2.928257   2.494461   3.757124
    18  H    4.805224   4.448450   3.256549   2.167505   2.838355
    19  H    4.036829   2.653098   2.175462   3.435421   4.588737
                    6          7          8          9         10
     6  C    0.000000
     7  H    4.796978   0.000000
     8  H    2.161436   5.163393   0.000000
     9  H    3.405167   3.220109   2.480068   0.000000
    10  C    4.293809   1.111594   4.653022   2.697524   0.000000
    11  C    3.782650   3.289185   5.403495   4.728152   3.009383
    12  H    2.151489   5.079554   4.302099   4.968828   4.679806
    13  H    1.088666   5.863536   2.489975   4.303864   5.382449
    14  H    4.086347   4.278381   5.864821   5.421105   3.831233
    15  S    5.157434   2.444678   5.959007   4.275993   1.824326
    16  O    6.539999   2.867157   7.197452   5.235729   2.664419
    17  O    4.926127   2.757011   6.224876   4.985522   2.609388
    18  H    4.148280   3.667568   5.870687   5.347961   3.695306
    19  H    4.830958   1.756297   4.720343   2.409658   1.103901
                   11         12         13         14         15
    11  C    0.000000
    12  H    2.659654   0.000000
    13  H    4.640230   2.477109   0.000000
    14  H    1.110823   2.625947   4.808273   0.000000
    15  S    2.650469   4.903519   6.195808   3.094171   0.000000
    16  O    3.807678   6.262230   7.596343   4.272693   1.461876
    17  O    1.423035   4.070760   5.880953   2.047810   1.727649
    18  H    1.114569   2.780929   4.898594   1.809063   3.526822
    19  H    4.067107   5.549447   5.898980   4.806081   2.437701
                   16         17         18         19
    16  O    0.000000
    17  O    2.524301   0.000000
    18  H    4.471223   1.985064   0.000000
    19  H    2.978015   3.614123   4.794971   0.000000
 Symmetry turned off by external request.
 Stoichiometry    C8H8O2S
 Framework group  C1[X(C8H8O2S)]
 Deg. of freedom    51
 Full point group                 C1      NOp   1
 Rotational constants (GHZ):           2.3883103           0.6908420           0.5590692

 **********************************************************************

            Population analysis using the SCF Density.

 **********************************************************************

 Alpha  occ. eigenvalues --   -1.15815  -1.11713  -1.07496  -1.00852  -0.98329
 Alpha  occ. eigenvalues --   -0.91749  -0.86292  -0.81070  -0.78983  -0.71367
 Alpha  occ. eigenvalues --   -0.65207  -0.61728  -0.59701  -0.59170  -0.57863
 Alpha  occ. eigenvalues --   -0.54983  -0.53404  -0.53182  -0.51785  -0.49451
 Alpha  occ. eigenvalues --   -0.48501  -0.46928  -0.45591  -0.45180  -0.41023
 Alpha  occ. eigenvalues --   -0.39641  -0.36941  -0.35574  -0.32471
 Alpha virt. eigenvalues --   -0.00609  -0.00496   0.00575   0.02886   0.04390
 Alpha virt. eigenvalues --    0.08119   0.10946   0.11665   0.13190   0.15286
 Alpha virt. eigenvalues --    0.16329   0.16591   0.16984   0.17546   0.18380
 Alpha virt. eigenvalues --    0.18519   0.19233   0.19717   0.19864   0.20087
 Alpha virt. eigenvalues --    0.20306   0.21103   0.21332   0.21468   0.21835
 Alpha virt. eigenvalues --    0.22226   0.23307   0.26452
          Condensed to atoms (all electrons):
               1          2          3          4          5          6
     1  C    4.115894   0.000000   0.000000   0.000000   0.000000   0.000000
     2  C    0.000000   4.200560   0.000000   0.000000   0.000000   0.000000
     3  C    0.000000   0.000000   3.905308   0.000000   0.000000   0.000000
     4  C    0.000000   0.000000   0.000000   4.116215   0.000000   0.000000
     5  C    0.000000   0.000000   0.000000   0.000000   4.138832   0.000000
     6  C    0.000000   0.000000   0.000000   0.000000   0.000000   4.159699
     7  H    0.000000   0.000000   0.000000   0.000000   0.000000   0.000000
     8  H    0.000000   0.000000   0.000000   0.000000   0.000000   0.000000
     9  H    0.000000   0.000000   0.000000   0.000000   0.000000   0.000000
    10  C    0.000000   0.000000   0.000000   0.000000   0.000000   0.000000
    11  C    0.000000   0.000000   0.000000   0.000000   0.000000   0.000000
    12  H    0.000000   0.000000   0.000000   0.000000   0.000000   0.000000
    13  H    0.000000   0.000000   0.000000   0.000000   0.000000   0.000000
    14  H    0.000000   0.000000   0.000000   0.000000   0.000000   0.000000
    15  S    0.000000   0.000000   0.000000   0.000000   0.000000   0.000000
    16  O    0.000000   0.000000   0.000000   0.000000   0.000000   0.000000
    17  O    0.000000   0.000000   0.000000   0.000000   0.000000   0.000000
    18  H    0.000000   0.000000   0.000000   0.000000   0.000000   0.000000
    19  H    0.000000   0.000000   0.000000   0.000000   0.000000   0.000000
               7          8          9         10         11         12
     1  C    0.000000   0.000000   0.000000   0.000000   0.000000   0.000000
     2  C    0.000000   0.000000   0.000000   0.000000   0.000000   0.000000
     3  C    0.000000   0.000000   0.000000   0.000000   0.000000   0.000000
     4  C    0.000000   0.000000   0.000000   0.000000   0.000000   0.000000
     5  C    0.000000   0.000000   0.000000   0.000000   0.000000   0.000000
     6  C    0.000000   0.000000   0.000000   0.000000   0.000000   0.000000
     7  H    0.787542   0.000000   0.000000   0.000000   0.000000   0.000000
     8  H    0.000000   0.852318   0.000000   0.000000   0.000000   0.000000
     9  H    0.000000   0.000000   0.844250   0.000000   0.000000   0.000000
    10  C    0.000000   0.000000   0.000000   4.615361   0.000000   0.000000
    11  C    0.000000   0.000000   0.000000   0.000000   4.005358   0.000000
    12  H    0.000000   0.000000   0.000000   0.000000   0.000000   0.851222
    13  H    0.000000   0.000000   0.000000   0.000000   0.000000   0.000000
    14  H    0.000000   0.000000   0.000000   0.000000   0.000000   0.000000
    15  S    0.000000   0.000000   0.000000   0.000000   0.000000   0.000000
    16  O    0.000000   0.000000   0.000000   0.000000   0.000000   0.000000
    17  O    0.000000   0.000000   0.000000   0.000000   0.000000   0.000000
    18  H    0.000000   0.000000   0.000000   0.000000   0.000000   0.000000
    19  H    0.000000   0.000000   0.000000   0.000000   0.000000   0.000000
              13         14         15         16         17         18
     1  C    0.000000   0.000000   0.000000   0.000000   0.000000   0.000000
     2  C    0.000000   0.000000   0.000000   0.000000   0.000000   0.000000
     3  C    0.000000   0.000000   0.000000   0.000000   0.000000   0.000000
     4  C    0.000000   0.000000   0.000000   0.000000   0.000000   0.000000
     5  C    0.000000   0.000000   0.000000   0.000000   0.000000   0.000000
     6  C    0.000000   0.000000   0.000000   0.000000   0.000000   0.000000
     7  H    0.000000   0.000000   0.000000   0.000000   0.000000   0.000000
     8  H    0.000000   0.000000   0.000000   0.000000   0.000000   0.000000
     9  H    0.000000   0.000000   0.000000   0.000000   0.000000   0.000000
    10  C    0.000000   0.000000   0.000000   0.000000   0.000000   0.000000
    11  C    0.000000   0.000000   0.000000   0.000000   0.000000   0.000000
    12  H    0.000000   0.000000   0.000000   0.000000   0.000000   0.000000
    13  H    0.848755   0.000000   0.000000   0.000000   0.000000   0.000000
    14  H    0.000000   0.868915   0.000000   0.000000   0.000000   0.000000
    15  S    0.000000   0.000000   4.785929   0.000000   0.000000   0.000000
    16  O    0.000000   0.000000   0.000000   6.660040   0.000000   0.000000
    17  O    0.000000   0.000000   0.000000   0.000000   6.593918   0.000000
    18  H    0.000000   0.000000   0.000000   0.000000   0.000000   0.840965
    19  H    0.000000   0.000000   0.000000   0.000000   0.000000   0.000000
              19
     1  C    0.000000
     2  C    0.000000
     3  C    0.000000
     4  C    0.000000
     5  C    0.000000
     6  C    0.000000
     7  H    0.000000
     8  H    0.000000
     9  H    0.000000
    10  C    0.000000
    11  C    0.000000
    12  H    0.000000
    13  H    0.000000
    14  H    0.000000
    15  S    0.000000
    16  O    0.000000
    17  O    0.000000
    18  H    0.000000
    19  H    0.808917
 Mulliken charges:
               1
     1  C   -0.115894
     2  C   -0.200560
     3  C    0.094692
     4  C   -0.116215
     5  C   -0.138832
     6  C   -0.159699
     7  H    0.212458
     8  H    0.147682
     9  H    0.155750
    10  C   -0.615361
    11  C   -0.005358
    12  H    0.148778
    13  H    0.151245
    14  H    0.131085
    15  S    1.214071
    16  O   -0.660040
    17  O   -0.593918
    18  H    0.159035
    19  H    0.191083
 Sum of Mulliken charges =   0.00000
 Mulliken charges with hydrogens summed into heavy atoms:
               1
     1  C    0.031787
     2  C   -0.044810
     3  C    0.094692
     4  C   -0.116215
     5  C    0.009946
     6  C   -0.008454
    10  C   -0.211820
    11  C    0.284762
    15  S    1.214071
    16  O   -0.660040
    17  O   -0.593918
 Charge=              0.0000 electrons
 Dipole moment (field-independent basis, Debye):
    X=             -4.3612    Y=             -1.9612    Z=              1.0466  Tot=              4.8951
 N-N= 3.398553554529D+02 E-N=-5.324009910505D+02  KE=-1.098143619400D+02
 Unable to Open any file for archive entry.
 1|1|UNPC-SKCH-134-020|FOpt|RPM6|ZDO|C8H8O2S1|AL6323|15-Nov-2025|0||# o
 pt=(calcfc,tight,cartesian,maxstep=1) freq rpm6 nosymm geom=connectivi
 ty scf=(tight,xqc)||Title Card Required||0,1|C,-4.5962218777,-1.530235
 5993,0.4777191781|C,-3.2051903001,-1.6025360054,0.4275666474|C,-2.4285
 302642,-0.4297235613,0.3944457098|C,-3.0650085665,0.8242576153,0.41877
 73669|C,-4.4685025742,0.8842987438,0.471154777|C,-5.2309657748,-0.2824
 449026,0.4994219025|H,-0.5940183249,-0.4295661232,-0.7204451551|H,-5.1
 894652522,-2.4434823364,0.4988321278|H,-2.7145800712,-2.5746915823,0.4
 068346561|C,-0.9481798557,-0.5374879828,0.3276791403|C,-2.3257043936,2
 .1374075638,0.3889011829|H,-4.9682772656,1.8529110095,0.4870404174|H,-
 6.3174038143,-0.223964951,0.5371882608|H,-2.6305319323,2.7811416271,1.
 2413180746|S,-0.2627424534,0.7934664751,1.3702246688|O,1.1789672221,0.
 8492346108,1.1347579347|O,-0.9042812259,2.0705416451,0.3995146072|H,-2
 .5298088007,2.6814988212,-0.5621879289|H,-0.5634118049,-1.5182164074,0
 .6574096417||Version=EM64W-G16RevC.01|HF=-0.0722256|RMSD=9.292e-009|RM
 SF=1.269e-008|Dipole=-1.7158355,-0.7716053,0.4117789|PG=C01 [X(C8H8O2S
 1)]||@
 The archive entry for this job was punched.


 EVERYBODY NEEDS BEAUTY AS WELL AS BREAD, PLACES TO PLAY IN AND PRAY IN,
 WHERE NATURE MAY HEAL AND CHEER AND GIVE STRENGTH TO BODY AND SOUL ALIKE.

                                    -- JOHN MUIR
 Job cpu time:       0 days  0 hours  0 minutes 10.0 seconds.
 Elapsed time:       0 days  0 hours  0 minutes  7.1 seconds.
 File lengths (MBytes):  RWF=     29 Int=      0 D2E=      0 Chk=      3 Scr=      1
 Normal termination of Gaussian 16 at Sat Nov 15 14:57:04 2025.
 Link1:  Proceeding to internal job step number  2.
 -------------------------------------------------------------
 #N Geom=AllCheck Guess=TCheck SCRF=Check GenChk RPM6/ZDO Freq
 -------------------------------------------------------------
 1/7=10,8=1,10=4,29=7,30=1,38=1,40=1/1,3;
 2/12=2,15=1,40=1/2;
 3/5=2,14=-4,25=1,41=3900000,70=2,71=2,116=1,135=40,140=1/1,2,3;
 4/5=101,35=1/1;
 5/5=2,8=3,13=1,32=2,35=1,38=6,98=1/2,8;
 8/6=4,10=90,11=11/1;
 11/6=1,8=1,9=11,15=111,16=1,31=1/1,2,10;
 10/6=1,31=1/2;
 6/7=2,8=2,9=2,10=2,28=1/1;
 7/8=1,10=1,25=1,30=1/1,2,3,16;
 1/7=10,8=1,10=4,30=1/3;
 99//99;
 Structure from the checkpoint file:  "C:\Users\al6323\OneDrive - Imperial College London\Desktop\TSR20251115\Exercise 3\DA reaction\product_exo_opt+freq.chk"
 -------------------
 Title Card Required
 -------------------
 Charge =  0 Multiplicity = 1
 No Z-Matrix found in chk file; cartesian coordinates used.
  C                                                -4.596221877690     -1.530235599334      0.477719178127
  C                                                -3.205190300057     -1.602536005447      0.427566647406
  C                                                -2.428530264174     -0.429723561341      0.394445709847
  C                                                -3.065008566490      0.824257615346      0.418777366949
  C                                                -4.468502574187      0.884298743786      0.471154776976
  C                                                -5.230965774842     -0.282444902576      0.499421902499
  H                                                -0.594018324893     -0.429566123232     -0.720445155138
  H                                                -5.189465252225     -2.443482336388      0.498832127776
  H                                                -2.714580071223     -2.574691582341      0.406834656127
  C                                                -0.948179855663     -0.537487982812      0.327679140268
  C                                                -2.325704393611      2.137407563768      0.388901182920
  H                                                -4.968277265567      1.852911009460      0.487040417389
  H                                                -6.317403814286     -0.223964950962      0.537188260756
  H                                                -2.630531932315      2.781141627141      1.241318074611
  S                                                -0.262742453419      0.793466475147      1.370224668776
  O                                                 1.178967222060      0.849234610844      1.134757934711
  O                                                -0.904281225866      2.070541645097      0.399514607185
  H                                                -2.529808800691      2.681498821208     -0.562187928888
  H                                                -0.563411804863     -1.518216407363      0.657409641704
 Recover connectivity data from disk.

 GradGradGradGradGradGradGradGradGradGradGradGradGradGradGradGradGradGrad
 Berny optimization.
 Initialization pass.
 Trust Radius=1.00D-02 FncErr=1.00D-07 GrdErr=1.00D-07 EigMax=2.50D+02 EigMin=1.00D-04
 Number of steps in this run=      2 maximum allowed number of steps=      2.
 GradGradGradGradGradGradGradGradGradGradGradGradGradGradGradGradGradGrad

                          Input orientation:                          
 ---------------------------------------------------------------------
 Center     Atomic      Atomic             Coordinates (Angstroms)
 Number     Number       Type             X           Y           Z
 ---------------------------------------------------------------------
      1          6           0       -4.596222   -1.530236    0.477719
      2          6           0       -3.205190   -1.602536    0.427567
      3          6           0       -2.428530   -0.429724    0.394446
      4          6           0       -3.065009    0.824258    0.418777
      5          6           0       -4.468503    0.884299    0.471155
      6          6           0       -5.230966   -0.282445    0.499422
      7          1           0       -0.594018   -0.429566   -0.720445
      8          1           0       -5.189465   -2.443482    0.498832
      9          1           0       -2.714580   -2.574692    0.406835
     10          6           0       -0.948180   -0.537488    0.327679
     11          6           0       -2.325704    2.137408    0.388901
     12          1           0       -4.968277    1.852911    0.487040
     13          1           0       -6.317404   -0.223965    0.537188
     14          1           0       -2.630532    2.781142    1.241318
     15         16           0       -0.262742    0.793466    1.370225
     16          8           0        1.178967    0.849235    1.134758
     17          8           0       -0.904281    2.070542    0.399515
     18          1           0       -2.529809    2.681499   -0.562188
     19          1           0       -0.563412   -1.518216    0.657410
 ---------------------------------------------------------------------
                    Distance matrix (angstroms):
                    1          2          3          4          5
     1  C    0.000000
     2  C    1.393812   0.000000
     3  C    2.432478   1.407049   0.000000
     4  C    2.809222   2.430855   1.406473   0.000000
     5  C    2.417919   2.789660   2.427762   1.405754   0.000000
     6  C    1.400126   2.419002   2.808266   2.433653   1.394073
     7  H    4.320267   3.084154   2.146722   2.995946   4.261195
     8  H    1.089221   2.156297   3.418901   3.898442   3.405096
     9  H    2.153251   1.089135   2.163993   3.416987   3.878788
    10  C    3.783685   2.497679   1.485769   2.518653   3.799307
    11  C    4.314481   3.842157   2.569196   1.507258   2.483673
    12  H    3.403556   3.879707   3.416037   2.164537   1.090063
    13  H    2.161561   3.405635   3.896928   3.419191   2.156628
    14  H    4.799478   4.495448   3.326808   2.166734   2.751236
    15  S    4.997520   3.909914   2.671886   2.959543   4.301743
    16  O    6.280636   5.072685   3.898440   4.304019   5.686432
    17  O    5.157726   4.334336   2.928257   2.494461   3.757124
    18  H    4.805224   4.448450   3.256549   2.167505   2.838355
    19  H    4.036829   2.653098   2.175462   3.435421   4.588737
                    6          7          8          9         10
     6  C    0.000000
     7  H    4.796978   0.000000
     8  H    2.161436   5.163393   0.000000
     9  H    3.405167   3.220109   2.480068   0.000000
    10  C    4.293809   1.111594   4.653022   2.697524   0.000000
    11  C    3.782650   3.289185   5.403495   4.728152   3.009383
    12  H    2.151489   5.079554   4.302099   4.968828   4.679806
    13  H    1.088666   5.863536   2.489975   4.303864   5.382449
    14  H    4.086347   4.278381   5.864821   5.421105   3.831233
    15  S    5.157434   2.444678   5.959007   4.275993   1.824326
    16  O    6.539999   2.867157   7.197452   5.235729   2.664419
    17  O    4.926127   2.757011   6.224876   4.985522   2.609388
    18  H    4.148280   3.667568   5.870687   5.347961   3.695306
    19  H    4.830958   1.756297   4.720343   2.409658   1.103901
                   11         12         13         14         15
    11  C    0.000000
    12  H    2.659654   0.000000
    13  H    4.640230   2.477109   0.000000
    14  H    1.110823   2.625947   4.808273   0.000000
    15  S    2.650469   4.903519   6.195808   3.094171   0.000000
    16  O    3.807678   6.262230   7.596343   4.272693   1.461876
    17  O    1.423035   4.070760   5.880953   2.047810   1.727649
    18  H    1.114569   2.780929   4.898594   1.809063   3.526822
    19  H    4.067107   5.549447   5.898980   4.806081   2.437701
                   16         17         18         19
    16  O    0.000000
    17  O    2.524301   0.000000
    18  H    4.471223   1.985064   0.000000
    19  H    2.978015   3.614123   4.794971   0.000000
 Symmetry turned off by external request.
 Stoichiometry    C8H8O2S
 Framework group  C1[X(C8H8O2S)]
 Deg. of freedom    51
 Full point group                 C1      NOp   1
 Rotational constants (GHZ):           2.3883103           0.6908420           0.5590692
 Standard basis: VSTO-6G (5D, 7F)
    57 basis functions,   348 primitive gaussians,    58 cartesian basis functions
    29 alpha electrons       29 beta electrons
       nuclear repulsion energy       339.8553554529 Hartrees.
 Integral buffers will be    131072 words long.
 Regular integral format.
 Two-electron integral symmetry is turned off.
 Do NDO integrals.
 One-electron integrals computed using PRISM.
 NBasis=    57 RedAO= F EigKep=  0.00D+00  NBF=    57
 NBsUse=    57 1.00D-04 EigRej=  0.00D+00 NBFU=    57
 Initial guess from the checkpoint file:  "C:\Users\al6323\OneDrive - Imperial College London\Desktop\TSR20251115\Exercise 3\DA reaction\product_exo_opt+freq.chk"
 B after Tr=     0.000000    0.000000    0.000000
         Rot=    1.000000    0.000000    0.000000    0.000000 Ang=   0.00 deg.
 Keep J ints in memory in canonical form, NReq=1859402.
 Overlap will be assumed to be unity.
 Requested convergence on RMS density matrix=1.00D-08 within  32 cycles.
 Requested convergence on MAX density matrix=1.00D-06.
 Requested convergence on             energy=1.00D-06.
 No special actions if energy rises.
 SCF Done:  E(RPM6) = -0.722256314631E-01 A.U. after    2 cycles
            NFock=  1  Conv=0.11D-08     -V/T= 0.9993
 QCSCF skips out because SCF is already converged.
 Range of M.O.s used for correlation:     1    57
 NBasis=    57 NAE=    29 NBE=    29 NFC=     0 NFV=     0
 NROrb=     57 NOA=    29 NOB=    29 NVA=    28 NVB=    28
 Symmetrizing basis deriv contribution to polar:
 IMax=3 JMax=2 DiffMx= 0.00D+00
 G2DrvN: will do    20 centers at a time, making    1 passes.
 Calling FoFCou, ICntrl=  3107 FMM=F I1Cent=   0 AccDes= 0.00D+00.
 End of G2Drv F.D. properties file   721 does not exist.
 End of G2Drv F.D. properties file   722 does not exist.
 End of G2Drv F.D. properties file   788 does not exist.
          IDoAtm=1111111111111111111
          Differentiating once with respect to electric field.
                with respect to dipole field.
          Differentiating once with respect to nuclear coordinates.
          Electric field/nuclear overlap derivatives assumed to be zero.
 Keep J ints in memory in canonical form, NReq=1861376.
          There are    60 degrees of freedom in the 1st order CPHF.  IDoFFX=5 NUNeed=    60.
 LinEq1:  Iter=  0 NonCon=    60 RMS=2.74D-01 Max=3.75D+00 NDo=    60
 AX will form    60 AO Fock derivatives at one time.
 LinEq1:  Iter=  1 NonCon=    60 RMS=5.24D-02 Max=4.97D-01 NDo=    60
 LinEq1:  Iter=  2 NonCon=    60 RMS=1.20D-02 Max=1.29D-01 NDo=    60
 LinEq1:  Iter=  3 NonCon=    60 RMS=4.18D-03 Max=4.57D-02 NDo=    60
 LinEq1:  Iter=  4 NonCon=    60 RMS=1.26D-03 Max=1.40D-02 NDo=    60
 LinEq1:  Iter=  5 NonCon=    60 RMS=3.88D-04 Max=4.35D-03 NDo=    60
 LinEq1:  Iter=  6 NonCon=    60 RMS=9.87D-05 Max=1.01D-03 NDo=    60
 LinEq1:  Iter=  7 NonCon=    60 RMS=2.14D-05 Max=1.65D-04 NDo=    60
 LinEq1:  Iter=  8 NonCon=    57 RMS=4.62D-06 Max=3.65D-05 NDo=    60
 LinEq1:  Iter=  9 NonCon=    33 RMS=1.38D-06 Max=1.50D-05 NDo=    60
 LinEq1:  Iter= 10 NonCon=    12 RMS=3.18D-07 Max=3.72D-06 NDo=    33
 LinEq1:  Iter= 11 NonCon=     3 RMS=7.75D-08 Max=6.88D-07 NDo=    12
 LinEq1:  Iter= 12 NonCon=     2 RMS=1.86D-08 Max=1.73D-07 NDo=     3
 LinEq1:  Iter= 13 NonCon=     0 RMS=3.52D-09 Max=2.42D-08 NDo=     2
 Linear equations converged to 1.000D-08 1.000D-07 after    13 iterations.
 Isotropic polarizability for W=    0.000000       93.56 Bohr**3.
 End of Minotr F.D. properties file   721 does not exist.
 End of Minotr F.D. properties file   722 does not exist.
 End of Minotr F.D. properties file   788 does not exist.

 **********************************************************************

            Population analysis using the SCF Density.

 **********************************************************************

 Alpha  occ. eigenvalues --   -1.15815  -1.11713  -1.07496  -1.00852  -0.98329
 Alpha  occ. eigenvalues --   -0.91749  -0.86292  -0.81070  -0.78983  -0.71367
 Alpha  occ. eigenvalues --   -0.65207  -0.61728  -0.59701  -0.59170  -0.57863
 Alpha  occ. eigenvalues --   -0.54983  -0.53404  -0.53182  -0.51785  -0.49451
 Alpha  occ. eigenvalues --   -0.48501  -0.46928  -0.45591  -0.45180  -0.41023
 Alpha  occ. eigenvalues --   -0.39641  -0.36941  -0.35574  -0.32471
 Alpha virt. eigenvalues --   -0.00609  -0.00496   0.00575   0.02886   0.04390
 Alpha virt. eigenvalues --    0.08119   0.10946   0.11665   0.13190   0.15286
 Alpha virt. eigenvalues --    0.16329   0.16591   0.16984   0.17546   0.18380
 Alpha virt. eigenvalues --    0.18519   0.19233   0.19717   0.19864   0.20087
 Alpha virt. eigenvalues --    0.20306   0.21103   0.21332   0.21468   0.21835
 Alpha virt. eigenvalues --    0.22226   0.23307   0.26452
          Condensed to atoms (all electrons):
               1          2          3          4          5          6
     1  C    4.115894   0.000000   0.000000   0.000000   0.000000   0.000000
     2  C    0.000000   4.200560   0.000000   0.000000   0.000000   0.000000
     3  C    0.000000   0.000000   3.905308   0.000000   0.000000   0.000000
     4  C    0.000000   0.000000   0.000000   4.116215   0.000000   0.000000
     5  C    0.000000   0.000000   0.000000   0.000000   4.138832   0.000000
     6  C    0.000000   0.000000   0.000000   0.000000   0.000000   4.159699
     7  H    0.000000   0.000000   0.000000   0.000000   0.000000   0.000000
     8  H    0.000000   0.000000   0.000000   0.000000   0.000000   0.000000
     9  H    0.000000   0.000000   0.000000   0.000000   0.000000   0.000000
    10  C    0.000000   0.000000   0.000000   0.000000   0.000000   0.000000
    11  C    0.000000   0.000000   0.000000   0.000000   0.000000   0.000000
    12  H    0.000000   0.000000   0.000000   0.000000   0.000000   0.000000
    13  H    0.000000   0.000000   0.000000   0.000000   0.000000   0.000000
    14  H    0.000000   0.000000   0.000000   0.000000   0.000000   0.000000
    15  S    0.000000   0.000000   0.000000   0.000000   0.000000   0.000000
    16  O    0.000000   0.000000   0.000000   0.000000   0.000000   0.000000
    17  O    0.000000   0.000000   0.000000   0.000000   0.000000   0.000000
    18  H    0.000000   0.000000   0.000000   0.000000   0.000000   0.000000
    19  H    0.000000   0.000000   0.000000   0.000000   0.000000   0.000000
               7          8          9         10         11         12
     1  C    0.000000   0.000000   0.000000   0.000000   0.000000   0.000000
     2  C    0.000000   0.000000   0.000000   0.000000   0.000000   0.000000
     3  C    0.000000   0.000000   0.000000   0.000000   0.000000   0.000000
     4  C    0.000000   0.000000   0.000000   0.000000   0.000000   0.000000
     5  C    0.000000   0.000000   0.000000   0.000000   0.000000   0.000000
     6  C    0.000000   0.000000   0.000000   0.000000   0.000000   0.000000
     7  H    0.787542   0.000000   0.000000   0.000000   0.000000   0.000000
     8  H    0.000000   0.852318   0.000000   0.000000   0.000000   0.000000
     9  H    0.000000   0.000000   0.844250   0.000000   0.000000   0.000000
    10  C    0.000000   0.000000   0.000000   4.615361   0.000000   0.000000
    11  C    0.000000   0.000000   0.000000   0.000000   4.005358   0.000000
    12  H    0.000000   0.000000   0.000000   0.000000   0.000000   0.851222
    13  H    0.000000   0.000000   0.000000   0.000000   0.000000   0.000000
    14  H    0.000000   0.000000   0.000000   0.000000   0.000000   0.000000
    15  S    0.000000   0.000000   0.000000   0.000000   0.000000   0.000000
    16  O    0.000000   0.000000   0.000000   0.000000   0.000000   0.000000
    17  O    0.000000   0.000000   0.000000   0.000000   0.000000   0.000000
    18  H    0.000000   0.000000   0.000000   0.000000   0.000000   0.000000
    19  H    0.000000   0.000000   0.000000   0.000000   0.000000   0.000000
              13         14         15         16         17         18
     1  C    0.000000   0.000000   0.000000   0.000000   0.000000   0.000000
     2  C    0.000000   0.000000   0.000000   0.000000   0.000000   0.000000
     3  C    0.000000   0.000000   0.000000   0.000000   0.000000   0.000000
     4  C    0.000000   0.000000   0.000000   0.000000   0.000000   0.000000
     5  C    0.000000   0.000000   0.000000   0.000000   0.000000   0.000000
     6  C    0.000000   0.000000   0.000000   0.000000   0.000000   0.000000
     7  H    0.000000   0.000000   0.000000   0.000000   0.000000   0.000000
     8  H    0.000000   0.000000   0.000000   0.000000   0.000000   0.000000
     9  H    0.000000   0.000000   0.000000   0.000000   0.000000   0.000000
    10  C    0.000000   0.000000   0.000000   0.000000   0.000000   0.000000
    11  C    0.000000   0.000000   0.000000   0.000000   0.000000   0.000000
    12  H    0.000000   0.000000   0.000000   0.000000   0.000000   0.000000
    13  H    0.848755   0.000000   0.000000   0.000000   0.000000   0.000000
    14  H    0.000000   0.868915   0.000000   0.000000   0.000000   0.000000
    15  S    0.000000   0.000000   4.785929   0.000000   0.000000   0.000000
    16  O    0.000000   0.000000   0.000000   6.660040   0.000000   0.000000
    17  O    0.000000   0.000000   0.000000   0.000000   6.593918   0.000000
    18  H    0.000000   0.000000   0.000000   0.000000   0.000000   0.840965
    19  H    0.000000   0.000000   0.000000   0.000000   0.000000   0.000000
              19
     1  C    0.000000
     2  C    0.000000
     3  C    0.000000
     4  C    0.000000
     5  C    0.000000
     6  C    0.000000
     7  H    0.000000
     8  H    0.000000
     9  H    0.000000
    10  C    0.000000
    11  C    0.000000
    12  H    0.000000
    13  H    0.000000
    14  H    0.000000
    15  S    0.000000
    16  O    0.000000
    17  O    0.000000
    18  H    0.000000
    19  H    0.808917
 Mulliken charges:
               1
     1  C   -0.115894
     2  C   -0.200560
     3  C    0.094692
     4  C   -0.116215
     5  C   -0.138832
     6  C   -0.159699
     7  H    0.212458
     8  H    0.147682
     9  H    0.155750
    10  C   -0.615361
    11  C   -0.005358
    12  H    0.148778
    13  H    0.151245
    14  H    0.131085
    15  S    1.214071
[...]
 0.08889699,0.00197688,0.14515763,-0.25961094,-0.00466865,-0.00218859,0
 .68106206,0.00264805,-0.00213232,-0.00312017,-0.00352215,-0.00091644,0
 .00487615,0.00322410,-0.00046533,-0.06348836,-0.01938236,-0.00069327,0
 .15906410,0.10116891,-0.06515019,-0.00333274,-0.09409051,-0.04278931,0
 .00344312,-0.03478160,0.13982830,0.00147163,-0.30030626,-0.04607734,0.
 00860431,0.63572369,0.04431645,-0.09456314,-0.00158733,-0.04435559,-0.
 03076078,0.00184309,0.03309471,0.04403109,-0.00208324,0.07554318,-0.09
 138683,-0.00230809,0.03385523,0.63265025,-0.00361293,0.00263398,0.0063
 7857,0.00361697,0.00161234,-0.00296249,0.00116217,-0.00516326,0.004714
 54,0.00855093,0.00161200,-0.06453644,-0.01781327,-0.00142951,0.1422002
 9,-0.14109770,0.15555761,0.00254214,-0.03627839,0.03566717,0.00167759,
 -0.00661509,-0.00594091,-0.00051594,-0.05247231,-0.02488175,0.00252991
 ,-0.16712478,-0.17434871,0.00376763,0.61532803,0.02149007,-0.26987606,
 -0.00056947,0.14474235,0.04357615,-0.00551926,-0.00793254,-0.11708855,
 0.00092760,-0.13281144,0.05809665,0.00472879,-0.04242219,-0.25991393,0
 .00140747,0.00809706,0.65731215,0.00260851,-0.00539868,-0.06553499,0.0
 0147058,-0.00122276,0.00643342,0.00013103,0.00026642,-0.00324476,0.002
 23122,0.00090474,0.00533893,0.00376835,0.00654545,-0.06429335,-0.01690
 497,-0.00083631,0.14104695,-0.00008797,-0.00001793,-0.00077244,-0.0011
 6800,0.00006287,-0.00020705,-0.02508089,-0.00174100,0.02747295,-0.0007
 2939,0.00019560,0.00019433,-0.00000141,-0.00010505,-0.00081565,0.00004
 020,-0.00002604,-0.00002612,0.06680091,0.00001412,-0.00002178,-0.00002
 705,0.00002897,-0.00021574,-0.00024329,-0.00042165,0.00491295,-0.00039
 514,0.00055087,-0.00051709,0.00004997,-0.00016466,-0.00010466,-0.00002
 282,-0.00000159,-0.00003227,0.00000471,0.00720575,0.03713072,0.0000275
 0,-0.00007492,-0.00000701,-0.00038480,-0.00022825,-0.00041016,0.017436
 41,0.00055402,-0.00563910,-0.00058309,-0.00001939,0.00004003,0.0001391
 6,0.00014286,-0.00004487,-0.00018341,-0.00006574,-0.00003506,-0.068786
 17,-0.01565550,0.23396355,-0.08890892,-0.08452466,0.00164885,-0.033052
 39,-0.02522053,0.00140203,-0.00303544,0.00085871,0.00029391,0.00033656
 ,-0.00000297,0.00005383,-0.00087125,0.00133453,0.00019864,0.00706303,0
 .00736262,-0.00002783,-0.00004434,0.00002130,0.00000869,0.11881724,-0.
 08438991,-0.16433421,0.00298279,-0.01049282,-0.00091387,0.00042110,-0.
 00014484,0.00007559,-0.00005937,0.00032259,0.00025260,0.00008702,0.001
 52480,-0.00230678,-0.00005952,-0.00735253,-0.04031749,0.00029413,-0.00
 006650,0.00002614,0.00006447,0.09981120,0.20728449,0.00168434,0.003012
 32,-0.04216757,0.00136368,0.00090250,0.00552359,0.00036701,-0.00006190
 ,0.00573448,-0.00002476,0.00004060,0.00022992,0.00021739,-0.00003947,0
 .00518376,-0.00004678,-0.00024749,0.00576229,0.00007934,0.00002212,0.0
 0005189,-0.00339602,-0.00358208,0.02379440,-0.02900750,0.02822852,0.00
 133014,-0.07114491,0.07422804,0.00124794,0.00740568,-0.01291276,-0.000
 25241,-0.00124781,-0.00113699,0.00034472,0.00031555,-0.00024140,-0.000
 02429,-0.00317109,-0.00033568,0.00031916,0.00002001,-0.00028667,-0.000
 02855,-0.00075264,0.00022740,-0.00002182,0.09931750,0.01433270,-0.0053
 2054,-0.00053398,0.07433144,-0.18189238,-0.00312766,0.00076998,-0.0396
 4205,0.00017688,-0.00144269,-0.00211508,0.00001178,-0.00038466,0.00047
 803,0.00003550,0.00002749,0.00040439,-0.00002645,-0.00007770,0.0000552
 5,0.00012347,-0.00007618,0.00093908,0.00000565,-0.08705425,0.22864598,
 0.00135999,-0.00106484,0.00556552,0.00118588,-0.00314825,-0.04146007,-
 0.00005967,0.00047788,0.00590434,0.00027922,0.00008046,0.00513468,-0.0
 0005336,-0.00003998,0.00007017,0.00028761,0.00007813,0.00554382,0.0003
 0705,0.00012749,0.00014627,-0.00001885,-0.00000860,-0.00132917,-0.0028
 9747,0.00364050,0.02333889,0.00152096,-0.00288020,0.00016164,-0.042626
 38,-0.01886212,0.00330090,-0.25008373,0.01150871,0.00415786,-0.0322500
 3,0.02055218,0.00161637,0.00056191,0.00186116,0.00062886,-0.00116631,0
 .00098282,0.00010312,-0.04937445,-0.00404212,0.05393918,-0.00022260,0.
 00048089,-0.00006895,-0.00117328,0.00010949,-0.00000456,0.48270576,-0.
 00046168,-0.00267890,0.00006549,-0.02798430,-0.00145278,0.00174279,0.0
 2194976,-0.05523198,0.00218844,0.02970653,-0.00741989,-0.00186183,0.00
 000041,-0.00248739,-0.00009068,0.00006378,0.00143846,0.00001914,-0.005
 59708,-0.03202178,0.01893546,-0.00049116,0.00008296,-0.00003652,-0.000
 31611,-0.00110242,0.00003275,-0.03786270,0.38215095,-0.00034933,-0.000
 22028,0.00513152,0.00191682,0.00178953,0.00698409,0.00959211,0.0022244
 4,-0.05784552,0.00087307,-0.00235215,0.00441939,-0.00024577,0.00079831
 ,0.00517251,0.00043568,-0.00008144,0.00012537,0.05159446,0.01696798,-0
 .19086010,-0.00003575,0.00004659,-0.00052881,0.00024973,-0.00013179,-0
 .00191678,-0.02063332,-0.02890736,0.34487927,0.00152888,-0.00017828,-0
 .00006218,-0.00273183,0.00130943,0.00025023,0.01222117,0.00214894,-0.0
 0158162,-0.08573344,-0.06916977,0.00331104,-0.03532945,-0.02718947,0.0
 0162806,-0.00245200,0.00247434,0.00014493,0.00024840,0.00068283,0.0005
 5061,-0.00027401,-0.00039405,0.00000421,0.00048363,0.00001618,-0.00002
 280,-0.00505660,-0.00381541,-0.00108750,0.46673301,0.00031122,-0.00069
 962,0.00000563,0.00130971,-0.00104192,-0.00006853,-0.00519213,-0.04405
 391,0.00018757,-0.06105221,-0.18634901,0.00224704,-0.02274859,-0.00583
 915,0.00096416,0.00132581,0.00190082,-0.00018211,0.00018492,-0.0001830
 7,0.00022542,0.00000774,0.00004430,0.00001353,-0.00019064,-0.00034330,
 0.00001733,-0.00146382,-0.00318127,-0.00102109,0.01869550,0.45004790,0
 .00027145,0.00010728,0.00004580,0.00016890,-0.00038102,0.00558092,-0.0
 0046491,0.00015566,0.00416353,0.00085088,0.00202654,-0.05902872,0.0017
 3351,0.00049929,0.00473651,0.00002965,0.00005793,0.00479121,0.00043248
 ,0.00024879,-0.00004856,-0.00007873,-0.00007481,-0.00086909,-0.0000437
 1,-0.00000735,-0.00041470,-0.00097194,-0.00024731,0.00140327,-0.005414
 17,-0.00860998,0.38151858,-0.00117637,-0.00143201,0.00022597,0.0003552
 6,-0.00009106,0.00000092,-0.00298948,-0.00066225,0.00034768,-0.0290555
 1,0.02756562,0.00120851,-0.07272018,0.07546800,0.00092931,0.00670647,-
 0.01193214,0.00000185,-0.00001459,-0.00000620,-0.00000146,0.00022858,-
 0.00018340,-0.00002145,-0.00004947,0.00010183,-0.00002563,-0.00016202,
 0.00050636,-0.00009506,-0.00300801,-0.00010921,0.00005458,0.10183094,-
 0.00171554,-0.00203957,0.00008700,-0.00034832,0.00053186,-0.00002086,0
 .00049752,-0.00013579,0.00007178,0.01319993,-0.00372646,-0.00064195,0.
 07516092,-0.17960949,-0.00240707,0.00237125,-0.04086312,-0.00002512,0.
 00006306,0.00000390,-0.00004570,0.00013419,-0.00040148,-0.00000966,0.0
 0009831,-0.00019391,-0.00000340,-0.00046504,-0.00008057,-0.00012105,-0
 .00017295,0.00038629,0.00019795,-0.08784961,0.22622430,0.00030440,-0.0
 0000161,0.00556982,-0.00009601,-0.00002844,0.00009023,0.00030948,0.000
 06095,0.00528443,0.00136577,-0.00100150,0.00574948,0.00079857,-0.00248
 994,-0.04202005,-0.00000752,0.00057039,0.00586659,0.00006427,-0.000028
 80,0.00004469,-0.00001961,0.00000808,-0.00037410,-0.00002990,-0.000000
 74,-0.00082729,-0.00002312,0.00001604,-0.00046438,0.00005162,0.0000669
 9,-0.00137024,-0.00259708,0.00281249,0.02350739,-0.02412477,0.01547670
 ,0.00105058,-0.00015773,0.00125175,0.00015709,-0.00013976,0.00032900,0
 .00023260,-0.00027466,-0.00180730,0.00012036,-0.02937618,-0.01360053,0
 .00126835,-0.21869189,0.01006761,0.00613727,-0.00004944,0.00001925,0.0
 0009104,0.00057257,0.00049841,-0.00006021,-0.00021084,0.00013137,0.000
 00324,0.00071058,-0.00000108,-0.00014775,-0.00035135,-0.00002825,-0.00
 001734,0.00042847,-0.00061692,-0.00005854,0.27186776,0.02992831,-0.009
 37171,-0.00102861,0.00101239,-0.00275356,-0.00004104,-0.00002519,0.000
 10341,-0.00001668,-0.00111033,-0.00234866,0.00007157,-0.02805481,-0.00
 494662,0.00098513,0.01001562,-0.03465330,-0.00034942,0.00000118,-0.000
 00500,-0.00000580,0.00080023,-0.00038355,-0.00002902,0.00044237,0.0000
 3696,-0.00001462,-0.00002654,0.00003996,0.00001415,-0.00029188,0.00014
 346,-0.00000414,-0.00092961,-0.00025203,0.00003255,-0.01155741,0.05449
 891,0.00102192,-0.00052972,0.00552551,0.00018112,-0.00003725,0.0051253
 9,0.00004837,-0.00005386,0.00028171,0.00021054,0.00007293,0.00548224,0
 .00123063,0.00047633,0.00527282,0.00616068,-0.00034366,-0.04166957,0.0
 0013783,0.00001115,0.00002070,-0.00006163,-0.00001797,-0.00114097,-0.0
 0001211,-0.00000097,-0.00029874,-0.00011766,-0.00000471,-0.00090177,0.
 00000984,0.00002050,-0.00026570,-0.00005913,0.00001904,-0.00131439,-0.
 00866293,0.00037431,0.02378503,0.00012218,-0.00023801,-0.00000923,-0.0
 0002175,-0.00025193,0.00030382,-0.00077691,-0.00054115,0.00002574,0.00
 484639,-0.00875785,-0.00631780,-0.00125052,-0.00137577,-0.00021559,0.0
 0007346,0.00038628,-0.00004297,-0.00009097,-0.00001896,-0.00003903,0.0
 0003280,0.00005634,-0.00001138,-0.00004393,-0.00002010,-0.00000568,0.0
 0034276,0.00029769,-0.00020850,-0.03881786,0.02363348,0.02991709,-0.00
 046505,-0.00028040,-0.00015502,0.00002434,-0.00000980,-0.00001802,0.07
 006318,0.00029219,-0.00001408,-0.00001024,-0.00000051,-0.00052259,0.00
 074426,-0.00152019,-0.00065989,-0.00013252,-0.00396276,-0.03180304,-0.
 02126383,-0.00057831,-0.00109492,-0.00046222,0.00003732,0.00021078,0.0
 0056647,0.00004200,-0.00004156,-0.00005631,-0.00003748,-0.00004914,-0.
 00010923,-0.00004830,-0.00005249,-0.00003996,-0.00005775,0.00039162,0.
 00007930,0.02685986,-0.08792074,-0.07505134,-0.00036497,0.00011142,-0.
 00026010,-0.00002573,0.00001708,-0.00003621,-0.03219264,0.11730146,0.0
 0003561,0.00004354,-0.00000714,-0.00012927,0.00011896,-0.00006213,0.00
 053950,0.00022038,-0.00016862,-0.00222045,-0.00993186,-0.00068349,-0.0
 0039713,-0.00006404,0.00001757,0.00011219,-0.00002246,-0.00004705,-0.0
 0001195,-0.00000200,-0.00001562,-0.00002615,-0.00003587,0.00001321,0.0
 0003605,-0.00001277,0.00001921,-0.00023599,0.00012625,-0.00012952,0.03
 327994,-0.07813626,-0.13793132,-0.00032015,-0.00008117,0.00012202,-0.0
 0003561,0.00003516,0.00002642,-0.04580771,0.09875945,0.16140003,0.0001
 2092,0.00005693,0.00020954,-0.00080124,0.00141473,-0.00041301,-0.02689
 356,-0.01635130,-0.01089853,-0.00189675,-0.00045592,-0.00122669,-0.000
 10805,0.00019373,0.00011935,0.00109729,0.00039267,-0.00005923,0.006717
 87,-0.00241381,-0.00538610,-0.00036398,-0.00058213,0.00003224,0.000443
 43,-0.00070806,-0.00004809,-0.03548068,-0.01844320,-0.02184023,-0.0294
 8394,0.01759903,-0.01058264,-0.00024006,0.00047232,-0.00000577,-0.0007
 3632,0.00008400,0.00001512,-0.00160699,0.00220655,0.00041538,0.5279114
 6,-0.00072436,0.00021280,0.00000556,0.00330925,0.00013120,-0.00044664,
 -0.02166685,-0.00088225,-0.00185543,0.00072605,0.00177578,-0.00071856,
 -0.00047984,-0.00167533,-0.00009222,0.00066037,-0.00078694,-0.00004304
 ,-0.00296431,-0.00516337,-0.01726371,0.00013402,-0.00000549,-0.0000082
 8,-0.00045139,-0.00022742,-0.00015108,-0.00751870,-0.06970772,-0.04595
 206,0.02780459,-0.00124227,0.00254102,0.00025187,0.00045830,0.00000842
 ,-0.00042868,-0.00004116,0.00004174,-0.00084939,-0.00125889,-0.0006253
 9,0.01053540,0.22404925,0.00073491,0.00022364,-0.00008174,0.00012778,-
 0.00041542,-0.00041790,-0.00837380,-0.00491160,-0.00043727,-0.00004648
 ,0.00073820,0.00048712,-0.00016003,-0.00024437,-0.00021637,0.00005238,
 0.00065051,-0.00016855,-0.00922336,-0.02425667,-0.02348500,-0.00005525
 ,-0.00019232,0.00010895,0.00010533,-0.00004619,0.00031710,-0.01395108,
 -0.04002945,-0.09304494,-0.01744711,-0.00038569,-0.01068753,-0.0000744
 6,0.00012355,0.00022008,-0.00005930,0.00004003,0.00010811,0.00410977,0
 .00001138,0.00177420,-0.00270155,0.00148816,0.25133985,-0.00012199,-0.
 00022664,0.00016287,-0.00129761,-0.00066586,0.00032380,0.00374026,-0.0
 0224263,-0.00207510,-0.00043661,0.00020933,0.00051245,0.00008399,-0.00
 009451,0.00002950,-0.00067911,-0.00010606,0.00007501,-0.00133380,0.000
 53191,0.00263571,0.00014228,0.00033107,-0.00005205,-0.00011038,0.00051
 610,-0.00010904,-0.02217233,-0.01338144,-0.00620501,0.00556595,0.00528
 292,-0.00480151,0.00018120,-0.00022284,-0.00006316,0.00045975,-0.00004
 055,-0.00005416,0.00001380,-0.00047842,-0.00052571,-0.42575316,-0.0221
 5776,0.07036790,0.47302512,-0.00007447,-0.00002578,0.00009045,-0.00057
 849,0.00024483,-0.00006585,-0.00110710,-0.00197785,-0.00170421,-0.0003
 0513,-0.00025193,0.00001136,0.00009447,0.00018541,0.00009056,-0.000067
 01,0.00000857,0.00000492,0.00126981,0.00045119,0.00090600,-0.00002222,
 -0.00000167,0.00000452,0.00011335,-0.00002176,-0.00001913,-0.01889841,
 -0.00158810,0.00226173,0.00009350,-0.00207291,0.00140590,-0.00001720,-
 0.00008388,-0.00000890,0.00004590,-0.00000096,-0.00002030,0.00029927,-
 0.00007212,0.00015753,-0.01573180,-0.01858172,-0.00187094,0.02061632,0
 .02342526,-0.00013100,-0.00001771,0.00008896,-0.00018131,0.00037311,0.
 00004352,-0.00227482,-0.00178211,-0.00124988,0.00008509,-0.00006730,-0
 .00008937,0.00010405,0.00008293,0.00012299,0.00011791,-0.00008060,0.00
 004689,0.00215137,0.00166222,-0.00007493,-0.00004610,-0.00004357,-0.00
 003207,0.00005020,-0.00006640,-0.00012819,-0.01384072,-0.00059542,0.01
 257446,-0.00132845,0.00189305,0.00030510,-0.00001556,0.00004509,-0.000
 06975,-0.00007623,0.00000545,-0.00004106,-0.00062218,0.00021894,-0.000
 31633,0.07870979,0.00111351,-0.05100588,-0.05505093,0.00030910,0.03149
 630,-0.00077192,-0.00012825,0.00002128,0.00192069,-0.00009627,0.000107
 19,-0.00581271,0.00230251,0.00100939,-0.03854032,-0.01601136,-0.001481
 50,-0.00055547,-0.00387110,0.00001891,-0.00082427,-0.00074994,0.000136
 95,-0.00056301,0.00021146,-0.00090677,0.00028533,0.00036320,-0.0000453
 2,-0.00038007,0.00022150,-0.00002679,0.00861856,0.00480560,0.00454573,
 -0.25100815,0.01041922,0.01050849,0.00058125,-0.00009835,-0.00002742,0
 .00012642,-0.00023490,-0.00001701,-0.03694716,0.01064746,0.01175899,-0
 .01830743,0.02192684,-0.02294030,-0.02765919,0.01267561,-0.00818454,0.
 40013647,0.00038360,0.00015782,-0.00000151,-0.00128340,-0.00023052,0.0
 0013376,0.00305890,-0.00013141,-0.00090872,-0.02700002,-0.00120404,0.0
 0022150,-0.00120284,-0.00185163,0.00005727,-0.00110723,0.00044368,0.00
 009233,0.00010307,0.00136433,0.00167066,-0.00004325,-0.00001569,-0.000
 00133,0.00013431,0.00016175,-0.00002723,0.00022036,-0.02962450,0.00418
 035,0.00621469,-0.04839767,0.00749349,-0.00011970,-0.00047941,-0.00001
 244,0.00021650,-0.00009220,-0.00002452,0.02030384,-0.00077781,-0.00267
 350,0.02333370,-0.09851113,0.07270578,0.01056706,0.00051156,-0.0028409
 1,-0.05323846,0.18152227,-0.00066147,0.00010066,-0.00000851,0.00131265
 ,0.00022591,-0.00018028,-0.00326437,0.00099676,0.00087443,0.00028076,-
 0.00036045,0.00273075,0.00023832,-0.00005118,0.00032425,0.00016023,-0.
 00067616,0.00007251,0.00037228,0.00198325,-0.00135757,0.00010081,0.000
 10572,-0.00001797,-0.00015810,-0.00004009,-0.00007699,0.00612257,-0.00
 029896,0.01300177,0.01263172,0.01098244,-0.03144488,0.00014165,0.00001
 919,-0.00011619,-0.00004642,-0.00002719,-0.00004357,0.01964102,-0.0072
 7843,-0.00040732,-0.02661329,0.07146495,-0.07899906,-0.00468640,-0.001
 19835,0.00913324,0.02257958,-0.08311316,0.09179340,0.00004985,-0.00022
 785,0.00001547,-0.00002768,-0.00013262,-0.00035926,-0.00078313,-0.0002
 7140,0.00035010,0.00334211,-0.00912524,0.00746835,-0.00111178,-0.00097
 656,0.00022111,0.00012806,0.00031440,-0.00005635,-0.00003031,0.0000643
 7,-0.00005145,0.00003713,0.00005938,0.00002061,-0.00003667,-0.00002092
 ,0.00000683,0.00058814,0.00002902,0.00066157,-0.03262134,0.01217249,-0
 .02143329,-0.00030773,-0.00026177,0.00020165,0.00000609,-0.00000239,0.
 00002493,0.00449653,-0.00083035,0.00352537,-0.00163944,-0.00268029,-0.
 00108463,-0.00196669,0.00061876,-0.00017414,-0.03016253,0.02093817,-0.
 02772759,0.06010808,0.00026366,-0.00004607,-0.00002371,-0.00013625,-0.
 00033156,-0.00076607,-0.00095495,-0.00067941,0.00005464,-0.00576201,-0
 .02704893,0.02331166,-0.00047902,-0.00081630,0.00033528,0.00002903,0.0
 0021454,-0.00061954,0.00005473,-0.00012312,0.00000114,-0.00003052,-0.0
 0005069,0.00011909,-0.00001472,-0.00005229,0.00005191,-0.00025072,0.00
 043506,0.00005293,0.01462955,-0.07129880,0.06987372,-0.00018409,0.0001
 5499,0.00025664,-0.00004694,0.00001914,0.00004076,-0.00047146,0.006278
 84,-0.00787448,0.00148326,0.00020643,0.00060132,-0.00041128,-0.0001460
 8,0.00012282,0.01185556,-0.00176087,0.00878287,-0.01959695,0.09507947,
 -0.00008010,-0.00011121,-0.00000302,0.00009482,-0.00006438,-0.00009491
 ,-0.00024804,-0.00040333,-0.00002807,0.00393194,0.01288024,-0.00302511
 ,0.00009416,0.00003242,-0.00010282,-0.00009619,0.00006288,-0.00003127,
 -0.00000248,-0.00006001,0.00025022,0.00004662,0.00006870,0.00001541,-0
 .00003324,0.00002880,0.00004037,0.00007204,-0.00026937,-0.00054787,-0.
 02455543,0.07173361,-0.16014334,0.00028223,-0.00001521,0.00010324,0.00
 005911,-0.00003892,0.00003178,-0.00060873,0.00433871,-0.02362413,-0.00
 086467,0.00101151,-0.00008726,0.00070999,-0.00013658,-0.00015004,-0.01
 722246,0.00520201,-0.00470563,0.03845567,-0.09431991,0.19205954,0.0001
 3918,0.00008872,0.00018730,-0.00232506,0.00016101,-0.00014998,-0.02374
 889,0.02698288,-0.00839091,-0.00282266,-0.00010826,0.00009483,-0.00023
 049,0.00048909,0.00034133,0.00013643,0.00000962,-0.00001006,0.00474136
 ,-0.00197552,0.00152222,0.00001057,-0.00006897,-0.00001987,-0.00065756
 ,-0.00077384,-0.00015784,-0.05527961,0.05099710,-0.01901804,0.00008461
 ,-0.00015660,-0.00015889,-0.00012310,0.00003415,-0.00001250,-0.0000829
 0,-0.00000096,-0.00003810,0.00000563,0.00001194,0.00000742,0.00701951,
 -0.00542746,0.00061778,-0.00168044,0.00097394,0.00070703,-0.00013646,-
 0.00147963,-0.00042390,-0.00006879,0.00002325,-0.00003564,0.07501926,-
 0.00001455,-0.00020257,-0.00012291,-0.00042818,0.00007180,0.00011799,0
 .01514794,-0.00419171,0.00209572,-0.00055768,0.00026088,0.00026053,0.0
 0006328,0.00000990,-0.00000634,-0.00015164,-0.00007180,0.00000504,0.00
 141246,-0.00551501,0.01079146,-0.00001538,0.00007524,0.00000467,-0.000
 48305,0.00024264,0.00001072,0.05661478,-0.17796382,0.05036980,0.000283
 68,0.00010153,-0.00023152,-0.00001257,-0.00000526,0.,0.00007639,-0.000
 00943,0.00001244,0.00003039,-0.00004378,-0.00000149,-0.00309147,-0.028
 74817,-0.00422556,0.00197741,-0.00000291,-0.00033323,-0.00100147,-0.00
 108411,-0.00161956,-0.00007022,-0.00003424,0.00006022,-0.06978043,0.21
 711049,0.00006656,0.00008753,-0.00006068,-0.00025571,-0.00030623,-0.00
 010697,-0.00138834,0.00119656,0.00341458,0.00018145,0.00040615,0.00041
 701,0.00015449,-0.00008607,-0.00001654,-0.00011850,-0.00003498,0.00000
 032,-0.00296095,0.01961380,-0.01253912,0.00001251,-0.00000449,0.000040
 93,-0.00018174,-0.00002810,0.00037116,-0.02025595,0.04921461,-0.047453
 42,-0.00036428,0.00004546,-0.00034308,0.00001724,-0.00000484,-0.000002
 50,0.00004459,-0.00000288,0.00001673,0.00006453,-0.00001838,0.00002029
 ,0.00114441,-0.01051670,0.00427547,-0.00119891,-0.00021826,-0.00065345
 ,0.00016625,-0.00215391,-0.00057269,-0.00006498,-0.00000067,0.00004341
 ,0.02493762,-0.05718812,0.05314824||0.00000003,-0.00000001,0.,-0.00000
 003,-0.00000001,0.,0.,0.00000003,0.,0.00000003,-0.00000001,0.,-0.00000
 003,-0.00000001,0.,0.,0.00000003,0.,0.,0.,0.,0.,0.,0.,0.,0.,0.,0.,0.,0
 .,0.,0.,0.,0.,0.,0.,0.,0.,0.,0.,0.,0.,0.,0.,0.,0.,0.,0.,0.,0.,0.,0.,0.
 ,0.,0.,0.,0.|||@
 The archive entry for this job was punched.


 LAWS OF PROGRAMMING DEFINITION:  A WORKING PROGRAM
                                  IS ONE THAT HAS
                                  ONLY UNOBSERVED
                                  BUGS.
 Job cpu time:       0 days  0 hours  0 minutes  6.0 seconds.
 Elapsed time:       0 days  0 hours  0 minutes  4.1 seconds.
 File lengths (MBytes):  RWF=     31 Int=      0 D2E=      0 Chk=      3 Scr=      1
 Normal termination of Gaussian 16 at Sat Nov 15 14:57:10 2025.
