 Default is to use a total of   8 processors:
                                8 via shared-memory
                                1 via Linda
 Entering Link 1 = C:\G16W\l1.exe PID=      3304.
  
 Copyright (c) 1988-2019, Gaussian, Inc.  All Rights Reserved.
  
 This is part of the Gaussian(R) 16 program.  It is based on
 the Gaussian(R) 09 system (copyright 2009, Gaussian, Inc.),
 the Gaussian(R) 03 system (copyright 2003, Gaussian, Inc.),
 the Gaussian(R) 98 system (copyright 1998, Gaussian, Inc.),
 the Gaussian(R) 94 system (copyright 1995, Gaussian, Inc.),
 the Gaussian 92(TM) system (copyright 1992, Gaussian, Inc.),
 the Gaussian 90(TM) system (copyright 1990, Gaussian, Inc.),
 the Gaussian 88(TM) system (copyright 1988, Gaussian, Inc.),
 the Gaussian 86(TM) system (copyright 1986, Carnegie Mellon
 University), and the Gaussian 82(TM) system (copyright 1983,
 Carnegie Mellon University). Gaussian is a federally registered
 trademark of Gaussian, Inc.
  
 This software contains proprietary and confidential information,
 including trade secrets, belonging to Gaussian, Inc.
  
 This software is provided under written license and may be
 used, copied, transmitted, or stored only in accord with that
 written license.
  
 The following legend is applicable only to US Government
 contracts under FAR:
  
                    RESTRICTED RIGHTS LEGEND
  
 Use, reproduction and disclosure by the US Government is
 subject to restrictions as set forth in subparagraphs (a)
 and (c) of the Commercial Computer Software - Restricted
 Rights clause in FAR 52.227-19.
  
 Gaussian, Inc.
 340 Quinnipiac St., Bldg. 40, Wallingford CT 06492
  
  
 ---------------------------------------------------------------
 Warning -- This program may not be used in any manner that
 competes with the business of Gaussian, Inc. or will provide
 assistance to any competitor of Gaussian, Inc.  The licensee
 of this program is prohibited from giving any competitor of
 Gaussian, Inc. access to this program.  By using this program,
 the user acknowledges that Gaussian, Inc. is engaged in the
 business of creating and licensing software in the field of
 computational chemistry and represents and warrants to the
 licensee that it is not a competitor of Gaussian, Inc. and that
 it will not use this program in any manner prohibited above.
 ---------------------------------------------------------------
  

 Cite this work as:
 Gaussian 16, Revision C.01,
 M. J. Frisch, G. W. Trucks, H. B. Schlegel, G. E. Scuseria, 
 M. A. Robb, J. R. Cheeseman, G. Scalmani, V. Barone, 
 G. A. Petersson, H. Nakatsuji, X. Li, M. Caricato, A. V. Marenich, 
 J. Bloino, B. G. Janesko, R. Gomperts, B. Mennucci, H. P. Hratchian, 
 J. V. Ortiz, A. F. Izmaylov, J. L. Sonnenberg, D. Williams-Young, 
 F. Ding, F. Lipparini, F. Egidi, J. Goings, B. Peng, A. Petrone, 
 T. Henderson, D. Ranasinghe, V. G. Zakrzewski, J. Gao, N. Rega, 
 G. Zheng, W. Liang, M. Hada, M. Ehara, K. Toyota, R. Fukuda, 
 J. Hasegawa, M. Ishida, T. Nakajima, Y. Honda, O. Kitao, H. Nakai, 
 T. Vreven, K. Throssell, J. A. Montgomery, Jr., J. E. Peralta, 
 F. Ogliaro, M. J. Bearpark, J. J. Heyd, E. N. Brothers, K. N. Kudin, 
 V. N. Staroverov, T. A. Keith, R. Kobayashi, J. Normand, 
 K. Raghavachari, A. P. Rendell, J. C. Burant, S. S. Iyengar, 
 J. Tomasi, M. Cossi, J. M. Millam, M. Klene, C. Adamo, R. Cammi, 
 J. W. Ochterski, R. L. Martin, K. Morokuma, O. Farkas, 
 J. B. Foresman, and D. J. Fox, Gaussian, Inc., Wallingford CT, 2019.
 
 ******************************************
 Gaussian 16:  EM64W-G16RevC.01 30-May-2019
                15-Nov-2025 
 ******************************************
 %chk=C:\Users\al6323\OneDrive - Imperial College London\Desktop\TSR20251115\Exer
 cise 3\DA reaction\product_endo_opt+freq.chk
 Default route: MaxDisk=10GB
 --------------------------------------------------------------
 # opt=(tight,maxstep=5) freq rpm6 nosymm geom=connectivity scf
 --------------------------------------------------------------
 1/7=10,8=5,18=20,19=15,26=1,38=1,57=2/1,3;
 2/9=110,12=2,15=1,17=6,18=5,40=1/2;
 3/5=2,25=1,41=3900000,71=1,116=1/1,2,3;
 4/35=1/1;
 5/5=2,35=1,38=5/2;
 6/7=2,8=2,9=2,10=2,28=1/1;
 7/30=1/1,2,3,16;
 1/7=10,8=5,18=20,19=15,26=1/3(2);
 2/9=110,15=1/2;
 99//99;
 2/9=110,15=1/2;
 3/5=2,25=1,41=3900000,71=1,116=1,135=20/1,2,3;
 4/5=5,16=3,35=1/1;
 5/5=2,35=1,38=5/2;
 7/30=1/1,2,3,16;
 1/7=10,8=5,18=20,19=15,26=1/3(-5);
 2/9=110,15=1/2;
 6/7=2,8=2,9=2,10=2,19=2,28=1/1;
 99/9=1/99;
 -------------------
 Title Card Required
 -------------------
 Symbolic Z-matrix:
 Charge =  0 Multiplicity = 1
 C                    -5.69087  -1.74305   0.04656 
 C                    -4.35823  -1.84983  -0.15868 
 C                    -3.48884  -0.58511  -0.29141 
 C                    -4.05309   0.6619   -0.10947 
 C                    -5.58131   0.76231   0.07388 
 C                    -6.34365  -0.35514   0.14491 
 H                    -1.90555  -0.83337  -1.70574 
 H                    -6.29089  -2.62439   0.13665 
 H                    -3.90704  -2.81696  -0.23613 
 C                    -2.00386  -0.75184  -0.64339 
 C                    -3.24298   2.004    -0.05196 
 H                    -6.04315   1.72427   0.15276 
 H                    -7.40257  -0.27139   0.2736 
 H                    -3.02856   2.22151   0.97352 
 O                    -1.99658   1.93712  -0.75975 
 S                    -1.15035   0.67822  -0.09977 
 O                    -1.14425   0.78286   1.36609 
 H                    -3.84108   2.78485  -0.47321 
 H                    -1.60174  -1.62993  -0.18277 
 

 GradGradGradGradGradGradGradGradGradGradGradGradGradGradGradGradGradGrad
 Berny optimization.
 Initialization pass.
                           ----------------------------
                           !    Initial Parameters    !
                           ! (Angstroms and Degrees)  !
 --------------------------                            --------------------------
 ! Name  Definition              Value          Derivative Info.                !
 --------------------------------------------------------------------------------
 ! R1    R(1,2)                  1.3526         estimate D2E/DX2                !
 ! R2    R(1,6)                  1.5369         estimate D2E/DX2                !
 ! R3    R(1,8)                  1.07           estimate D2E/DX2                !
 ! R4    R(2,3)                  1.5404         estimate D2E/DX2                !
 ! R5    R(2,9)                  1.07           estimate D2E/DX2                !
 ! R6    R(3,4)                  1.3808         estimate D2E/DX2                !
 ! R7    R(3,10)                 1.5352         estimate D2E/DX2                !
 ! R8    R(4,5)                  1.5424         estimate D2E/DX2                !
 ! R9    R(4,11)                 1.5687         estimate D2E/DX2                !
 ! R10   R(5,6)                  1.3546         estimate D2E/DX2                !
 ! R11   R(5,12)                 1.07           estimate D2E/DX2                !
 ! R12   R(6,13)                 1.07           estimate D2E/DX2                !
 ! R13   R(7,10)                 1.07           estimate D2E/DX2                !
 ! R14   R(10,16)                1.7519         estimate D2E/DX2                !
 ! R15   R(10,19)                1.07           estimate D2E/DX2                !
 ! R16   R(11,14)                1.07           estimate D2E/DX2                !
 ! R17   R(11,15)                1.4349         estimate D2E/DX2                !
 ! R18   R(11,18)                1.07           estimate D2E/DX2                !
 ! R19   R(15,16)                1.6542         estimate D2E/DX2                !
 ! R20   R(16,17)                1.4696         estimate D2E/DX2                !
 ! A1    A(2,1,6)              119.9654         estimate D2E/DX2                !
 ! A2    A(2,1,8)              120.0167         estimate D2E/DX2                !
 ! A3    A(6,1,8)              120.0175         estimate D2E/DX2                !
 ! A4    A(1,2,3)              120.286          estimate D2E/DX2                !
 ! A5    A(1,2,9)              119.8542         estimate D2E/DX2                !
 ! A6    A(3,2,9)              119.8584         estimate D2E/DX2                !
 ! A7    A(2,3,4)              119.9663         estimate D2E/DX2                !
 ! A8    A(2,3,10)             118.4569         estimate D2E/DX2                !
 ! A9    A(4,3,10)             121.5728         estimate D2E/DX2                !
 ! A10   A(3,4,5)              118.6422         estimate D2E/DX2                !
 ! A11   A(3,4,11)             124.5041         estimate D2E/DX2                !
 ! A12   A(5,4,11)             116.8466         estimate D2E/DX2                !
 ! A13   A(4,5,6)              120.672          estimate D2E/DX2                !
 ! A14   A(4,5,12)             119.6654         estimate D2E/DX2                !
 ! A15   A(6,5,12)             119.6611         estimate D2E/DX2                !
 ! A16   A(1,6,5)              120.1705         estimate D2E/DX2                !
 ! A17   A(1,6,13)             119.915          estimate D2E/DX2                !
 ! A18   A(5,6,13)             119.9141         estimate D2E/DX2                !
 ! A19   A(3,10,7)             108.9522         estimate D2E/DX2                !
 ! A20   A(3,10,16)            108.1469         estimate D2E/DX2                !
 ! A21   A(3,10,19)            110.7289         estimate D2E/DX2                !
 ! A22   A(7,10,16)            108.9973         estimate D2E/DX2                !
 ! A23   A(7,10,19)            109.2902         estimate D2E/DX2                !
 ! A24   A(16,10,19)           110.684          estimate D2E/DX2                !
 ! A25   A(4,11,14)            108.212          estimate D2E/DX2                !
 ! A26   A(4,11,15)            112.993          estimate D2E/DX2                !
 ! A27   A(4,11,18)            108.739          estimate D2E/DX2                !
 ! A28   A(14,11,15)           107.9478         estimate D2E/DX2                !
 ! A29   A(14,11,18)           109.9368         estimate D2E/DX2                !
 ! A30   A(15,11,18)           108.987          estimate D2E/DX2                !
 ! A31   A(11,15,16)           106.4405         estimate D2E/DX2                !
 ! A32   A(10,16,15)           104.3707         estimate D2E/DX2                !
 ! A33   A(10,16,17)           111.6952         estimate D2E/DX2                !
 ! A34   A(15,16,17)           110.2358         estimate D2E/DX2                !
 ! D1    D(6,1,2,3)              0.1422         estimate D2E/DX2                !
 ! D2    D(6,1,2,9)           -179.4217         estimate D2E/DX2                !
 ! D3    D(8,1,2,3)            179.9078         estimate D2E/DX2                !
 ! D4    D(8,1,2,9)              0.3439         estimate D2E/DX2                !
 ! D5    D(2,1,6,5)             -2.3362         estimate D2E/DX2                !
 ! D6    D(2,1,6,13)           177.8993         estimate D2E/DX2                !
 ! D7    D(8,1,6,5)            177.8982         estimate D2E/DX2                !
 ! D8    D(8,1,6,13)            -1.8663         estimate D2E/DX2                !
 ! D9    D(1,2,3,4)              4.4546         estimate D2E/DX2                !
 ! D10   D(1,2,3,10)          -174.8225         estimate D2E/DX2                !
 ! D11   D(9,2,3,4)           -175.9816         estimate D2E/DX2                !
 ! D12   D(9,2,3,10)             4.7414         estimate D2E/DX2                !
 ! D13   D(2,3,4,5)             -6.5227         estimate D2E/DX2                !
 ! D14   D(2,3,4,11)           172.4714         estimate D2E/DX2                !
 ! D15   D(10,3,4,5)           172.7313         estimate D2E/DX2                !
 ! D16   D(10,3,4,11)           -8.2746         estimate D2E/DX2                !
 ! D17   D(2,3,10,7)            84.4854         estimate D2E/DX2                !
 ! D18   D(2,3,10,16)         -157.1718         estimate D2E/DX2                !
 ! D19   D(2,3,10,19)          -35.7411         estimate D2E/DX2                !
 ! D20   D(4,3,10,7)           -94.7795         estimate D2E/DX2                !
 ! D21   D(4,3,10,16)           23.5633         estimate D2E/DX2                !
 ! D22   D(4,3,10,19)          144.994          estimate D2E/DX2                !
 ! D23   D(3,4,5,6)              4.3737         estimate D2E/DX2                !
 ! D24   D(3,4,5,12)          -176.0647         estimate D2E/DX2                !
 ! D25   D(11,4,5,6)          -174.6973         estimate D2E/DX2                !
 ! D26   D(11,4,5,12)            4.8644         estimate D2E/DX2                !
 ! D27   D(3,4,11,14)          -93.7314         estimate D2E/DX2                !
 ! D28   D(3,4,11,15)           25.7413         estimate D2E/DX2                !
 ! D29   D(3,4,11,18)          146.8838         estimate D2E/DX2                !
 ! D30   D(5,4,11,14)           85.2792         estimate D2E/DX2                !
 ! D31   D(5,4,11,15)         -155.2481         estimate D2E/DX2                !
 ! D32   D(5,4,11,18)          -34.1057         estimate D2E/DX2                !
 ! D33   D(4,5,6,1)              0.1498         estimate D2E/DX2                !
 ! D34   D(4,5,6,13)           179.9144         estimate D2E/DX2                !
 ! D35   D(12,5,6,1)          -179.4118         estimate D2E/DX2                !
 ! D36   D(12,5,6,13)            0.3527         estimate D2E/DX2                !
 ! D37   D(3,10,16,15)         -52.2711         estimate D2E/DX2                !
 ! D38   D(3,10,16,17)          66.8208         estimate D2E/DX2                !
 ! D39   D(7,10,16,15)          66.043          estimate D2E/DX2                !
 ! D40   D(7,10,16,17)        -174.8651         estimate D2E/DX2                !
 ! D41   D(19,10,16,15)       -173.7295         estimate D2E/DX2                !
 ! D42   D(19,10,16,17)        -54.6377         estimate D2E/DX2                !
 ! D43   D(4,11,15,16)         -56.8473         estimate D2E/DX2                !
 ! D44   D(14,11,15,16)         62.7776         estimate D2E/DX2                !
 ! D45   D(18,11,15,16)       -177.8491         estimate D2E/DX2                !
 ! D46   D(11,15,16,10)         71.0106         estimate D2E/DX2                !
 ! D47   D(11,15,16,17)        -49.0663         estimate D2E/DX2                !
 --------------------------------------------------------------------------------
 Trust Radius=5.00D-02 FncErr=1.00D-07 GrdErr=1.00D-07 EigMax=2.50D+02 EigMin=1.00D-04
 Number of steps in this run=    111 maximum allowed number of steps=    114.
 GradGradGradGradGradGradGradGradGradGradGradGradGradGradGradGradGradGrad

                          Input orientation:                          
 ---------------------------------------------------------------------
 Center     Atomic      Atomic             Coordinates (Angstroms)
 Number     Number       Type             X           Y           Z
 ---------------------------------------------------------------------
      1          6           0       -5.690867   -1.743054    0.046556
      2          6           0       -4.358229   -1.849833   -0.158681
      3          6           0       -3.488841   -0.585109   -0.291412
      4          6           0       -4.053093    0.661896   -0.109466
      5          6           0       -5.581311    0.762308    0.073881
      6          6           0       -6.343647   -0.355136    0.144911
      7          1           0       -1.905546   -0.833369   -1.705740
      8          1           0       -6.290887   -2.624394    0.136646
      9          1           0       -3.907041   -2.816959   -0.236126
     10          6           0       -2.003857   -0.751844   -0.643389
     11          6           0       -3.242984    2.004000   -0.051960
     12          1           0       -6.043153    1.724275    0.152757
     13          1           0       -7.402574   -0.271389    0.273598
     14          1           0       -3.028564    2.221507    0.973523
     15          8           0       -1.996579    1.937120   -0.759752
     16         16           0       -1.150355    0.678216   -0.099768
     17          8           0       -1.144249    0.782863    1.366089
     18          1           0       -3.841080    2.784850   -0.473213
     19          1           0       -1.601739   -1.629928   -0.182770
 ---------------------------------------------------------------------
                    Distance matrix (angstroms):
                    1          2          3          4          5
     1  C    0.000000
     2  C    1.352571   0.000000
     3  C    2.510773   1.540448   0.000000
     4  C    2.913834   2.530674   1.380763   0.000000
     5  C    2.507905   2.893665   2.515433   1.542449   0.000000
     6  C    1.536917   2.503632   2.897100   2.519067   1.354578
     7  H    4.269276   3.072823   2.137470   3.065268   4.384574
     8  H    1.070000   2.102933   3.491902   3.983465   3.460807
     9  H    2.101241   1.070000   2.271365   3.484222   3.963639
    10  C    3.879763   2.642648   1.535208   2.546194   3.950356
    11  C    4.476857   4.013376   2.611756   1.568702   2.650549
    12  H    3.486797   3.963611   3.472039   2.271067   1.070000
    13  H    2.268763   3.456354   3.966732   3.498111   2.103667
    14  H    4.864655   4.430091   3.112717   2.157524   3.074921
    15  O    5.276512   4.503298   2.967799   2.505658   3.863346
    16  S    5.147835   4.084723   2.664814   2.902801   4.435155
    17  O    5.365926   4.425571   3.180529   3.263935   4.621444
    18  H    4.918718   4.674041   3.393192   2.164300   2.723673
    19  H    4.097115   2.765353   2.159769   3.356630   4.650339
                    6          7          8          9         10
     6  C    0.000000
     7  H    4.832220   0.000000
     8  H    2.269887   5.082653   0.000000
     9  H    3.484653   3.178108   2.420487   0.000000
    10  C    4.428608   1.070000   4.742733   2.837723   0.000000
    11  C    3.901075   3.546039   5.545026   4.869962   3.078945
    12  H    2.101025   5.207240   4.355749   5.033588   4.804261
    13  H    1.070000   5.869490   2.606000   4.354135   5.497076
    14  H    4.279657   4.215671   5.901345   5.255579   3.536275
    15  O    4.996985   2.928958   6.328667   5.150274   2.691491
    16  S    5.300752   2.331169   6.114588   4.453556   1.751874
    17  O    5.460775   3.553577   6.293553   4.812362   2.670628
    18  H    4.062564   4.284499   5.969372   5.607212   3.989054
    19  H    4.921195   1.745348   4.804071   2.593513   1.070000
                   11         12         13         14         15
    11  C    0.000000
    12  H    2.821542   0.000000
    13  H    4.752428   2.417706   0.000000
    14  H    1.070000   3.163644   5.082951   0.000000
    15  O    1.434911   4.153642   5.930440   2.037182   0.000000
    16  S    2.477718   5.009739   6.334934   2.657324   1.654241
    17  O    2.811890   5.133974   6.439846   2.403008   2.564756
    18  H    1.070000   2.523050   4.752111   1.752308   2.050107
    19  H    3.989515   5.575788   5.975248   4.266895   3.634919
                   16         17         18         19
    16  S    0.000000
    17  O    1.469600   0.000000
    18  H    3.437641   3.829345   0.000000
    19  H    2.353330   2.903415   4.958757   0.000000
 Symmetry turned off by external request.
 Stoichiometry    C8H8O2S
 Framework group  C1[X(C8H8O2S)]
 Deg. of freedom    51
 Full point group                 C1      NOp   1
 Rotational constants (GHZ):           2.1044259           0.7333819           0.6096897
 Standard basis: VSTO-6G (5D, 7F)
    57 basis functions,   348 primitive gaussians,    58 cartesian basis functions
    29 alpha electrons       29 beta electrons
       nuclear repulsion energy       341.4226487442 Hartrees.
 Integral buffers will be    131072 words long.
 Regular integral format.
 Two-electron integral symmetry is turned off.
 Do NDO integrals.
 One-electron integrals computed using PRISM.
 NBasis=    57 RedAO= F EigKep=  0.00D+00  NBF=    57
 NBsUse=    57 1.00D-04 EigRej=  0.00D+00 NBFU=    57
 Nonelectrostatic core Hamiltonian diagonalized for initial guess.
 Keep J ints in memory in canonical form, NReq=1859402.
 Overlap will be assumed to be unity.
 Requested convergence on RMS density matrix=1.00D-08 within 128 cycles.
 Requested convergence on MAX density matrix=1.00D-06.
 Requested convergence on             energy=1.00D-06.
 No special actions if energy rises.
 SCF Done:  E(RPM6) = -0.296378068694E-01 A.U. after   21 cycles
            NFock= 20  Conv=0.36D-08     -V/T= 0.9997

 **********************************************************************

            Population analysis using the SCF Density.

 **********************************************************************

 Alpha  occ. eigenvalues --   -1.18440  -1.07345  -1.06300  -1.00224  -0.96968
 Alpha  occ. eigenvalues --   -0.93443  -0.86032  -0.80462  -0.77733  -0.71276
 Alpha  occ. eigenvalues --   -0.64321  -0.62656  -0.59861  -0.59131  -0.57568
 Alpha  occ. eigenvalues --   -0.55037  -0.54169  -0.53264  -0.51738  -0.48916
 Alpha  occ. eigenvalues --   -0.47273  -0.46019  -0.45380  -0.44510  -0.41596
 Alpha  occ. eigenvalues --   -0.40014  -0.36815  -0.35443  -0.31419
 Alpha virt. eigenvalues --    0.00186   0.00593   0.00645   0.03195   0.06143
 Alpha virt. eigenvalues --    0.07677   0.10140   0.10470   0.11538   0.13850
 Alpha virt. eigenvalues --    0.14090   0.15713   0.17276   0.18577   0.18747
 Alpha virt. eigenvalues --    0.19644   0.19940   0.20752   0.21048   0.21423
 Alpha virt. eigenvalues --    0.21813   0.21862   0.22234   0.22355   0.22982
 Alpha virt. eigenvalues --    0.24124   0.24565   0.27659
          Condensed to atoms (all electrons):
               1          2          3          4          5          6
     1  C    4.122947   0.000000   0.000000   0.000000   0.000000   0.000000
     2  C    0.000000   4.171023   0.000000   0.000000   0.000000   0.000000
     3  C    0.000000   0.000000   3.931942   0.000000   0.000000   0.000000
     4  C    0.000000   0.000000   0.000000   4.104906   0.000000   0.000000
     5  C    0.000000   0.000000   0.000000   0.000000   4.131814   0.000000
     6  C    0.000000   0.000000   0.000000   0.000000   0.000000   4.147661
     7  H    0.000000   0.000000   0.000000   0.000000   0.000000   0.000000
     8  H    0.000000   0.000000   0.000000   0.000000   0.000000   0.000000
     9  H    0.000000   0.000000   0.000000   0.000000   0.000000   0.000000
    10  C    0.000000   0.000000   0.000000   0.000000   0.000000   0.000000
    11  C    0.000000   0.000000   0.000000   0.000000   0.000000   0.000000
    12  H    0.000000   0.000000   0.000000   0.000000   0.000000   0.000000
    13  H    0.000000   0.000000   0.000000   0.000000   0.000000   0.000000
    14  H    0.000000   0.000000   0.000000   0.000000   0.000000   0.000000
    15  O    0.000000   0.000000   0.000000   0.000000   0.000000   0.000000
    16  S    0.000000   0.000000   0.000000   0.000000   0.000000   0.000000
    17  O    0.000000   0.000000   0.000000   0.000000   0.000000   0.000000
    18  H    0.000000   0.000000   0.000000   0.000000   0.000000   0.000000
    19  H    0.000000   0.000000   0.000000   0.000000   0.000000   0.000000
               7          8          9         10         11         12
     1  C    0.000000   0.000000   0.000000   0.000000   0.000000   0.000000
     2  C    0.000000   0.000000   0.000000   0.000000   0.000000   0.000000
     3  C    0.000000   0.000000   0.000000   0.000000   0.000000   0.000000
     4  C    0.000000   0.000000   0.000000   0.000000   0.000000   0.000000
     5  C    0.000000   0.000000   0.000000   0.000000   0.000000   0.000000
     6  C    0.000000   0.000000   0.000000   0.000000   0.000000   0.000000
     7  H    0.799608   0.000000   0.000000   0.000000   0.000000   0.000000
     8  H    0.000000   0.854837   0.000000   0.000000   0.000000   0.000000
     9  H    0.000000   0.000000   0.850539   0.000000   0.000000   0.000000
    10  C    0.000000   0.000000   0.000000   4.615362   0.000000   0.000000
    11  C    0.000000   0.000000   0.000000   0.000000   4.049889   0.000000
    12  H    0.000000   0.000000   0.000000   0.000000   0.000000   0.854345
    13  H    0.000000   0.000000   0.000000   0.000000   0.000000   0.000000
    14  H    0.000000   0.000000   0.000000   0.000000   0.000000   0.000000
    15  O    0.000000   0.000000   0.000000   0.000000   0.000000   0.000000
    16  S    0.000000   0.000000   0.000000   0.000000   0.000000   0.000000
    17  O    0.000000   0.000000   0.000000   0.000000   0.000000   0.000000
    18  H    0.000000   0.000000   0.000000   0.000000   0.000000   0.000000
    19  H    0.000000   0.000000   0.000000   0.000000   0.000000   0.000000
              13         14         15         16         17         18
     1  C    0.000000   0.000000   0.000000   0.000000   0.000000   0.000000
     2  C    0.000000   0.000000   0.000000   0.000000   0.000000   0.000000
     3  C    0.000000   0.000000   0.000000   0.000000   0.000000   0.000000
     4  C    0.000000   0.000000   0.000000   0.000000   0.000000   0.000000
     5  C    0.000000   0.000000   0.000000   0.000000   0.000000   0.000000
     6  C    0.000000   0.000000   0.000000   0.000000   0.000000   0.000000
     7  H    0.000000   0.000000   0.000000   0.000000   0.000000   0.000000
     8  H    0.000000   0.000000   0.000000   0.000000   0.000000   0.000000
     9  H    0.000000   0.000000   0.000000   0.000000   0.000000   0.000000
    10  C    0.000000   0.000000   0.000000   0.000000   0.000000   0.000000
    11  C    0.000000   0.000000   0.000000   0.000000   0.000000   0.000000
    12  H    0.000000   0.000000   0.000000   0.000000   0.000000   0.000000
    13  H    0.852863   0.000000   0.000000   0.000000   0.000000   0.000000
    14  H    0.000000   0.845467   0.000000   0.000000   0.000000   0.000000
    15  O    0.000000   0.000000   6.524702   0.000000   0.000000   0.000000
    16  S    0.000000   0.000000   0.000000   4.795360   0.000000   0.000000
    17  O    0.000000   0.000000   0.000000   0.000000   6.698513   0.000000
    18  H    0.000000   0.000000   0.000000   0.000000   0.000000   0.846727
    19  H    0.000000   0.000000   0.000000   0.000000   0.000000   0.000000
              19
     1  C    0.000000
     2  C    0.000000
     3  C    0.000000
     4  C    0.000000
     5  C    0.000000
     6  C    0.000000
     7  H    0.000000
     8  H    0.000000
     9  H    0.000000
    10  C    0.000000
    11  C    0.000000
    12  H    0.000000
    13  H    0.000000
    14  H    0.000000
    15  O    0.000000
    16  S    0.000000
    17  O    0.000000
    18  H    0.000000
    19  H    0.801494
 Mulliken charges:
               1
     1  C   -0.122947
     2  C   -0.171023
     3  C    0.068058
     4  C   -0.104906
     5  C   -0.131814
     6  C   -0.147661
     7  H    0.200392
     8  H    0.145163
     9  H    0.149461
    10  C   -0.615362
    11  C   -0.049889
    12  H    0.145655
    13  H    0.147137
    14  H    0.154533
    15  O   -0.524702
    16  S    1.204640
    17  O   -0.698513
    18  H    0.153273
    19  H    0.198506
 Sum of Mulliken charges =   0.00000
 Mulliken charges with hydrogens summed into heavy atoms:
               1
     1  C    0.022216
     2  C   -0.021562
     3  C    0.068058
     4  C   -0.104906
     5  C    0.013841
     6  C   -0.000524
    10  C   -0.216464
    11  C    0.257917
    15  O   -0.524702
    16  S    1.204640
    17  O   -0.698513
 Charge=              0.0000 electrons
 Dipole moment (field-independent basis, Debye):
    X=             -1.5231    Y=             -2.0993    Z=             -2.3781  Tot=              3.5188
 N-N= 3.414226487442D+02 E-N=-5.356928884756D+02  KE=-1.097446200666D+02
 Calling FoFJK, ICntrl=      2127 FMM=F ISym2X=0 I1Cent= 0 IOpClX= 0 NMat=1 NMatS=1 NMatT=0.
 -------------------------------------------------------------------
 Center     Atomic                   Forces (Hartrees/Bohr)
 Number     Number              X              Y              Z
 -------------------------------------------------------------------
      1        6          -0.016972941    0.061545235    0.002345760
      2        6           0.026585127    0.058099315   -0.006858220
      3        6          -0.025302464   -0.026253691    0.003394866
      4        6          -0.036469247   -0.000088062    0.000390257
      5        6           0.063098904   -0.015660744   -0.004731698
      6        6           0.037413079   -0.050235863   -0.004953754
      7        1           0.002224961   -0.004859548   -0.020242376
      8        1          -0.009622562   -0.000851238    0.001669503
      9        1           0.009634393   -0.002112970   -0.001386099
     10        6          -0.061476220    0.003211054    0.017592916
     11        6          -0.032023006   -0.037194487   -0.012716584
     12        1           0.004088190    0.009042353   -0.000271310
     13        1          -0.006648297   -0.006895383    0.000560090
     14        1           0.001451348    0.007093385    0.021958398
     15        8          -0.027318310    0.003828837    0.001552872
     16       16           0.075878931    0.006648728    0.007081853
     17        8          -0.008042957   -0.002528120   -0.000713268
     18        1          -0.003606113    0.014170319   -0.010998872
     19        1           0.007107187   -0.016959119    0.006325665
 -------------------------------------------------------------------
 Cartesian Forces:  Max     0.075878931 RMS     0.024604724

 GradGradGradGradGradGradGradGradGradGradGradGradGradGradGradGradGradGrad
 Berny optimization.
 FormGI is forming the generalized inverse of G from B-inverse, IUseBI=4.
 Internal  Forces:  Max     0.069192078 RMS     0.015342360
 Search for a local minimum.
 Step number   1 out of a maximum of  111
 All quantities printed in internal units (Hartrees-Bohrs-Radians)
 Mixed Optimization -- RFO/linear search
 Second derivative matrix not updated -- first step.
 ITU=  0
     Eigenvalues ---    0.00539   0.00699   0.00815   0.00872   0.01132
     Eigenvalues ---    0.01192   0.01467   0.01486   0.01695   0.02070
     Eigenvalues ---    0.02289   0.04590   0.05826   0.06728   0.07422
     Eigenvalues ---    0.07986   0.09223   0.09732   0.11708   0.11719
     Eigenvalues ---    0.15757   0.16000   0.16000   0.16000   0.16000
     Eigenvalues ---    0.19290   0.20745   0.21998   0.22531   0.24088
     Eigenvalues ---    0.24638   0.25918   0.27827   0.28065   0.28551
     Eigenvalues ---    0.28603   0.29698   0.37230   0.37230   0.37230
     Eigenvalues ---    0.37230   0.37230   0.37230   0.37230   0.37230
     Eigenvalues ---    0.39014   0.39686   0.45723   0.51647   0.53611
     Eigenvalues ---    0.87694
 RFO step:  Lambda=-7.18898829D-02 EMin= 5.39373375D-03
 Linear search not attempted -- first point.
 Maximum step size (   0.050) exceeded in Quadratic search.
    -- Step size scaled by   0.114
 Iteration  1 RMS(Cart)=  0.00859475 RMS(Int)=  0.00003634
 Iteration  2 RMS(Cart)=  0.00003825 RMS(Int)=  0.00001855
 Iteration  3 RMS(Cart)=  0.00000000 RMS(Int)=  0.00001855
 Variable       Old X    -DE/DX   Delta X   Delta X   Delta X     New X
                                 (Linear)    (Quad)   (Total)
    R1        2.55599  -0.00236   0.00000  -0.00033  -0.00033   2.55566
    R2        2.90435  -0.06841   0.00000  -0.02137  -0.02137   2.88298
    R3        2.02201   0.00624   0.00000   0.00160   0.00160   2.02360
    R4        2.91103  -0.06744   0.00000  -0.02157  -0.02157   2.88946
    R5        2.02201   0.00607   0.00000   0.00155   0.00155   2.02356
    R6        2.60926  -0.02641   0.00000  -0.00615  -0.00617   2.60309
    R7        2.90112  -0.02170   0.00000  -0.00682  -0.00682   2.89430
    R8        2.91481  -0.06919   0.00000  -0.02234  -0.02234   2.89246
    R9        2.96442  -0.03290   0.00000  -0.01239  -0.01241   2.95201
   R10        2.55978  -0.00500   0.00000  -0.00089  -0.00089   2.55889
   R11        2.02201   0.00634   0.00000   0.00162   0.00162   2.02363
   R12        2.02201   0.00611   0.00000   0.00156   0.00156   2.02357
   R13        2.02201   0.02067   0.00000   0.00529   0.00529   2.02730
   R14        3.31056   0.02950   0.00000   0.00990   0.00992   3.32048
   R15        2.02201   0.01931   0.00000   0.00494   0.00494   2.02695
   R16        2.02201   0.02278   0.00000   0.00583   0.00583   2.02784
   R17        2.71159   0.00690   0.00000   0.00159   0.00158   2.71317
   R18        2.02201   0.01669   0.00000   0.00427   0.00427   2.02628
   R19        3.12606   0.02757   0.00000   0.00702   0.00704   3.13310
   R20        2.77714  -0.00092   0.00000  -0.00011  -0.00011   2.77703
    A1        2.09379  -0.00201   0.00000  -0.00036  -0.00036   2.09343
    A2        2.09469   0.00865   0.00000   0.00393   0.00393   2.09862
    A3        2.09470  -0.00664   0.00000  -0.00357  -0.00357   2.09113
    A4        2.09939  -0.00008   0.00000   0.00001   0.00001   2.09940
    A5        2.09185   0.00801   0.00000   0.00391   0.00391   2.09576
    A6        2.09192  -0.00794   0.00000  -0.00392  -0.00392   2.08801
    A7        2.09381   0.00054   0.00000  -0.00027  -0.00027   2.09354
    A8        2.06746  -0.01064   0.00000  -0.00352  -0.00352   2.06394
    A9        2.12185   0.01006   0.00000   0.00376   0.00375   2.12560
   A10        2.07070   0.00418   0.00000   0.00171   0.00172   2.07242
   A11        2.17301   0.00775   0.00000   0.00129   0.00126   2.17427
   A12        2.03936  -0.01190   0.00000  -0.00300  -0.00299   2.03637
   A13        2.10612  -0.00026   0.00000  -0.00035  -0.00036   2.10577
   A14        2.08856  -0.00759   0.00000  -0.00361  -0.00361   2.08495
   A15        2.08848   0.00785   0.00000   0.00396   0.00396   2.09245
   A16        2.09737  -0.00230   0.00000  -0.00064  -0.00064   2.09673
   A17        2.09291  -0.00633   0.00000  -0.00335  -0.00335   2.08957
   A18        2.09290   0.00863   0.00000   0.00399   0.00399   2.09689
   A19        1.90158  -0.00839   0.00000  -0.00314  -0.00314   1.89844
   A20        1.88752   0.01087   0.00000   0.00628   0.00632   1.89384
   A21        1.93258   0.00204   0.00000  -0.00008  -0.00010   1.93248
   A22        1.90236   0.00119   0.00000  -0.00047  -0.00049   1.90187
   A23        1.90747  -0.00063   0.00000  -0.00166  -0.00166   1.90582
   A24        1.93180  -0.00509   0.00000  -0.00093  -0.00093   1.93087
   A25        1.88866   0.00379   0.00000   0.00123   0.00121   1.88987
   A26        1.97210  -0.00655   0.00000  -0.00264  -0.00264   1.96946
   A27        1.89785   0.00423   0.00000   0.00285   0.00285   1.90071
   A28        1.88404   0.00120   0.00000   0.00159   0.00159   1.88563
   A29        1.91876  -0.00120   0.00000  -0.00020  -0.00020   1.91856
   A30        1.90218  -0.00145   0.00000  -0.00278  -0.00278   1.89940
   A31        1.85774   0.01911   0.00000   0.01241   0.01245   1.87019
   A32        1.82161  -0.03071   0.00000  -0.01184  -0.01187   1.80974
   A33        1.94945  -0.00783   0.00000  -0.00582  -0.00586   1.94359
   A34        1.92398   0.00269   0.00000  -0.00238  -0.00248   1.92149
    D1        0.00248   0.00085   0.00000   0.00048   0.00048   0.00296
    D2       -3.13150   0.00065   0.00000   0.00020   0.00020  -3.13130
    D3        3.13998   0.00048   0.00000   0.00041   0.00040   3.14039
    D4        0.00600   0.00028   0.00000   0.00012   0.00012   0.00612
    D5       -0.04077   0.00016   0.00000   0.00019   0.00019  -0.04059
    D6        3.10493  -0.00043   0.00000  -0.00015  -0.00015   3.10478
    D7        3.10491   0.00049   0.00000   0.00025   0.00024   3.10515
    D8       -0.03257  -0.00009   0.00000  -0.00009  -0.00009  -0.03266
    D9        0.07775  -0.00159   0.00000  -0.00130  -0.00129   0.07646
   D10       -3.05123   0.00222   0.00000   0.00146   0.00145  -3.04977
   D11       -3.07146  -0.00132   0.00000  -0.00098  -0.00098  -3.07243
   D12        0.08275   0.00249   0.00000   0.00177   0.00177   0.08452
   D13       -0.11384   0.00063   0.00000   0.00107   0.00107  -0.11278
   D14        3.01019   0.00199   0.00000   0.00081   0.00080   3.01099
   D15        3.01473  -0.00346   0.00000  -0.00183  -0.00183   3.01290
   D16       -0.14442  -0.00210   0.00000  -0.00208  -0.00210  -0.14652
   D17        1.47455  -0.00185   0.00000  -0.00259  -0.00260   1.47195
   D18       -2.74317   0.00105   0.00000  -0.00134  -0.00136  -2.74453
   D19       -0.62380   0.00302   0.00000   0.00151   0.00151  -0.62229
   D20       -1.65421   0.00209   0.00000   0.00025   0.00023  -1.65398
   D21        0.41126   0.00500   0.00000   0.00149   0.00147   0.41272
   D22        2.53062   0.00696   0.00000   0.00434   0.00434   2.53496
   D23        0.07634   0.00016   0.00000  -0.00045  -0.00045   0.07589
   D24       -3.07291   0.00027   0.00000  -0.00034  -0.00034  -3.07325
   D25       -3.04904  -0.00128   0.00000  -0.00025  -0.00024  -3.04928
   D26        0.08490  -0.00118   0.00000  -0.00014  -0.00013   0.08477
   D27       -1.63592  -0.00434   0.00000  -0.00339  -0.00338  -1.63930
   D28        0.44927  -0.00434   0.00000  -0.00221  -0.00221   0.44706
   D29        2.56361  -0.00749   0.00000  -0.00547  -0.00547   2.55814
   D30        1.48840  -0.00286   0.00000  -0.00360  -0.00360   1.48480
   D31       -2.70959  -0.00285   0.00000  -0.00242  -0.00243  -2.71202
   D32       -0.59526  -0.00601   0.00000  -0.00568  -0.00569  -0.60094
   D33        0.00262  -0.00068   0.00000  -0.00025  -0.00025   0.00237
   D34        3.14010  -0.00013   0.00000   0.00007   0.00007   3.14017
   D35       -3.13133  -0.00072   0.00000  -0.00032  -0.00032  -3.13165
   D36        0.00616  -0.00017   0.00000   0.00000   0.00000   0.00616
   D37       -0.91230   0.01810   0.00000   0.01098   0.01094  -0.90136
   D38        1.16624  -0.00108   0.00000  -0.00193  -0.00191   1.16434
   D39        1.15267   0.01489   0.00000   0.01054   0.01050   1.16317
   D40       -3.05197  -0.00429   0.00000  -0.00238  -0.00235  -3.05432
   D41       -3.03215   0.01173   0.00000   0.00761   0.00757  -3.02459
   D42       -0.95361  -0.00745   0.00000  -0.00530  -0.00528  -0.95889
   D43       -0.99217  -0.00449   0.00000  -0.00078  -0.00075  -0.99293
   D44        1.09568  -0.00298   0.00000   0.00019   0.00020   1.09588
   D45       -3.10405  -0.00454   0.00000  -0.00071  -0.00070  -3.10475
   D46        1.23937  -0.01665   0.00000  -0.00973  -0.00967   1.22970
   D47       -0.85637   0.00887   0.00000   0.00515   0.00515  -0.85122
         Item               Value     Threshold  Converged?
 Maximum Force            0.069192     0.000015     NO 
 RMS     Force            0.015342     0.000010     NO 
 Maximum Displacement     0.026415     0.000060     NO 
 RMS     Displacement     0.008598     0.000040     NO 
 Predicted change in Energy=-7.820189D-03
 GradGradGradGradGradGradGradGradGradGradGradGradGradGradGradGradGradGrad

                          Input orientation:                          
 ---------------------------------------------------------------------
 Center     Atomic      Atomic             Coordinates (Angstroms)
 Number     Number       Type             X           Y           Z
 ---------------------------------------------------------------------
      1          6           0       -5.686126   -1.733869    0.045866
      2          6           0       -4.353406   -1.839217   -0.158420
      3          6           0       -3.491563   -0.582959   -0.288774
      4          6           0       -4.056463    0.660360   -0.108368
      5          6           0       -5.573068    0.760478    0.072454
      6          6           0       -6.335112   -0.356615    0.143145
      7          1           0       -1.916654   -0.836555   -1.706364
      8          1           0       -6.289196   -2.614153    0.135950
      9          1           0       -3.897099   -2.804802   -0.236468
     10          6           0       -2.010734   -0.752922   -0.640975
     11          6           0       -3.253407    1.999023   -0.050488
     12          1           0       -6.031618    1.725053    0.150349
     13          1           0       -7.395298   -0.277110    0.271038
     14          1           0       -3.042542    2.220860    0.978024
     15          8           0       -2.004623    1.930759   -0.755650
     16         16           0       -1.141481    0.675552   -0.101213
     17          8           0       -1.136145    0.776722    1.364833
     18          1           0       -3.849956    2.780731   -0.478044
     19          1           0       -1.610105   -1.635316   -0.181212
 ---------------------------------------------------------------------
                    Distance matrix (angstroms):
                    1          2          3          4          5
     1  C    0.000000
     2  C    1.352396   0.000000
     3  C    2.500536   1.529036   0.000000
     4  C    2.900331   2.517651   1.377497   0.000000
     5  C    2.497050   2.880850   2.503592   1.530625   0.000000
     6  C    1.525606   2.493233   2.885057   2.507936   1.354107
     7  H    4.252576   3.056014   2.134060   3.061557   4.368532
     8  H    1.070845   2.105816   3.483230   3.970796   3.450363
     9  H    2.104098   1.070823   2.259156   3.471189   3.951649
    10  C    3.865554   2.626977   1.531597   2.542841   3.935681
    11  C    4.456667   3.994212   2.603867   1.562135   2.632477
    12  H    3.477704   3.951678   3.460003   2.258704   1.070860
    13  H    2.257016   3.446407   3.955512   3.488641   2.106311
    14  H    4.847404   4.415212   3.109307   2.154865   3.058813
    15  O    5.255986   4.481761   2.957658   2.498586   3.845662
    16  S    5.145944   4.079681   2.672436   2.915030   4.435802
    17  O    5.361442   4.417488   3.182945   3.272936   4.621341
    18  H    4.901797   4.658277   3.388020   2.162240   2.711750
    19  H    4.083531   2.750962   2.158451   3.355608   4.637807
                    6          7          8          9         10
     6  C    0.000000
     7  H    4.813917   0.000000
     8  H    2.258016   5.066863   0.000000
     9  H    3.475864   3.155433   2.428409   0.000000
    10  C    4.412726   1.072800   4.730014   2.816418   0.000000
    11  C    3.883739   3.545326   5.525591   4.850326   3.076704
    12  H    2.103689   5.190583   4.346868   5.022488   4.788952
    13  H    1.070827   5.851379   2.589108   4.345594   5.481942
    14  H    4.263967   4.221534   5.884488   5.240471   3.539655
    15  O    4.979262   2.927392   6.309417   5.126067   2.686137
    16  S    5.300838   2.337493   6.113704   4.441238   1.757123
    17  O    5.459508   3.555855   6.289842   4.797327   2.669827
    18  H    4.050287   4.281494   5.952450   5.590954   3.986977
    19  H    4.905709   1.748737   4.790888   2.569259   1.072616
                   11         12         13         14         15
    11  C    0.000000
    12  H    2.798901   0.000000
    13  H    4.737026   2.425458   0.000000
    14  H    1.073086   3.140931   5.068152   0.000000
    15  O    1.435749   4.132776   5.915078   2.041337   0.000000
    16  S    2.492866   5.007811   6.336905   2.677081   1.657965
    17  O    2.824880   5.132247   6.440802   2.422706   2.565638
    18  H    1.072260   2.503794   4.741410   1.756561   2.050554
    19  H    3.990733   5.563434   5.959674   4.273850   3.633527
                   16         17         18         19
    16  S    0.000000
    17  O    1.469541   0.000000
    18  H    3.451031   3.844088   0.000000
    19  H    2.359263   2.903932   4.960496   0.000000
 Symmetry turned off by external request.
 Stoichiometry    C8H8O2S
 Framework group  C1[X(C8H8O2S)]
 Deg. of freedom    51
 Full point group                 C1      NOp   1
 Rotational constants (GHZ):           2.1125642           0.7352741           0.6113745
 Standard basis: VSTO-6G (5D, 7F)
    57 basis functions,   348 primitive gaussians,    58 cartesian basis functions
    29 alpha electrons       29 beta electrons
       nuclear repulsion energy       341.7776733711 Hartrees.
 Integral buffers will be    131072 words long.
 Regular integral format.
 Two-electron integral symmetry is turned off.
 Do NDO integrals.
 One-electron integrals computed using PRISM.
 NBasis=    57 RedAO= F EigKep=  0.00D+00  NBF=    57
 NBsUse=    57 1.00D-04 EigRej=  0.00D+00 NBFU=    57
 Initial guess from the checkpoint file:  "C:\Users\al6323\OneDrive - Imperial College London\Desktop\TSR20251115\Exercise 3\DA reaction\product_endo_opt+freq.chk"
 B after Tr=     0.003034   -0.004298   -0.002959
         Rot=    1.000000   -0.000298   -0.000252    0.000220 Ang=  -0.05 deg.
 Keep J ints in memory in canonical form, NReq=1859402.
 Overlap will be assumed to be unity.
 Requested convergence on RMS density matrix=1.00D-08 within 128 cycles.
 Requested convergence on MAX density matrix=1.00D-06.
 Requested convergence on             energy=1.00D-06.
 No special actions if energy rises.
 SCF Done:  E(RPM6) = -0.374465446246E-01 A.U. after   15 cycles
            NFock= 14  Conv=0.27D-08     -V/T= 0.9997
 Calling FoFJK, ICntrl=      2127 FMM=F ISym2X=0 I1Cent= 0 IOpClX= 0 NMat=1 NMatS=1 NMatT=0.
 -------------------------------------------------------------------
 Center     Atomic                   Forces (Hartrees/Bohr)
 Number     Number              X              Y              Z
 -------------------------------------------------------------------
      1        6          -0.018110963    0.057197907    0.002528834
      2        6           0.026736727    0.053483982   -0.006774813
      3        6          -0.021553202   -0.027734290    0.002673191
      4        6          -0.035576027    0.003181335    0.000675533
      5        6           0.059688805   -0.012546117   -0.004231346
      6        6           0.033212099   -0.048631028   -0.004440480
      7        1           0.002305415   -0.004583626   -0.018761966
      8        1          -0.008922280   -0.001252991    0.001538713
      9        1           0.008815205   -0.002444200   -0.001274778
     10        6          -0.056624892    0.003544126    0.016673224
     11        6          -0.028276767   -0.035207215   -0.011849434
     12        1           0.003321667    0.008624123   -0.000163481
     13        1          -0.006523997   -0.006123479    0.000569562
     14        1           0.001567146    0.006756443    0.020171773
     15        8          -0.025789718    0.003736712    0.002232966
     16       16           0.069191009    0.006503042    0.006210802
     17        8          -0.007359706   -0.002314691   -0.000943834
     18        1          -0.002779496    0.013482318   -0.010574478
     19        1           0.006678974   -0.015672352    0.005740011
 -------------------------------------------------------------------
 Cartesian Forces:  Max     0.069191009 RMS     0.022961413

 GradGradGradGradGradGradGradGradGradGradGradGradGradGradGradGradGradGrad
 Berny optimization.
 Using GEDIIS/GDIIS optimizer.
 FormGI is forming the generalized inverse of G from B-inverse, IUseBI=4.
 Internal  Forces:  Max     0.063272820 RMS     0.013945446
 Search for a local minimum.
 Step number   2 out of a maximum of  111
 All quantities printed in internal units (Hartrees-Bohrs-Radians)
 Mixed Optimization -- RFO/linear search
 Update second derivatives using D2CorX and points    1    2
 DE= -7.81D-03 DEPred=-7.82D-03 R= 9.99D-01
 TightC=F SS=  1.41D+00  RLast= 5.56D-02 DXNew= 8.4090D-02 1.6680D-01
 Trust test= 9.99D-01 RLast= 5.56D-02 DXMaxT set to 8.41D-02
 ITU=  1  0
 Use linear search instead of GDIIS.
 Linear search step of   0.100 exceeds DXMaxT=   0.084 but not scaled.
 Quartic linear search produced a step of  2.00000.
 Iteration  1 RMS(Cart)=  0.01720138 RMS(Int)=  0.00016593
 Iteration  2 RMS(Cart)=  0.00015141 RMS(Int)=  0.00011080
 Iteration  3 RMS(Cart)=  0.00000004 RMS(Int)=  0.00011080
 Variable       Old X    -DE/DX   Delta X   Delta X   Delta X     New X
                                 (Linear)    (Quad)   (Total)
    R1        2.55566   0.00050  -0.00066   0.00000  -0.00066   2.55500
    R2        2.88298  -0.06275  -0.04275   0.00000  -0.04275   2.84023
    R3        2.02360   0.00618   0.00319   0.00000   0.00319   2.02680
    R4        2.88946  -0.06168  -0.04313   0.00000  -0.04313   2.84633
    R5        2.02356   0.00605   0.00311   0.00000   0.00311   2.02667
    R6        2.60309  -0.02070  -0.01234   0.00000  -0.01245   2.59064
    R7        2.89430  -0.01982  -0.01365   0.00000  -0.01365   2.88064
    R8        2.89246  -0.06327  -0.04469   0.00000  -0.04469   2.84777
    R9        2.95201  -0.02968  -0.02482   0.00000  -0.02493   2.92708
   R10        2.55889  -0.00176  -0.00178   0.00000  -0.00178   2.55711
   R11        2.02363   0.00633   0.00325   0.00000   0.00325   2.02688
   R12        2.02357   0.00607   0.00313   0.00000   0.00313   2.02670
   R13        2.02730   0.01919   0.01058   0.00000   0.01058   2.03788
   R14        3.32048   0.02725   0.01984   0.00000   0.01993   3.34042
   R15        2.02695   0.01785   0.00989   0.00000   0.00989   2.03684
   R16        2.02784   0.02104   0.01166   0.00000   0.01166   2.03950
   R17        2.71317   0.00514   0.00317   0.00000   0.00315   2.71633
   R18        2.02628   0.01559   0.00854   0.00000   0.00854   2.03482
   R19        3.13310   0.02509   0.01407   0.00000   0.01418   3.14728
   R20        2.77703  -0.00113  -0.00022   0.00000  -0.00022   2.77681
    A1        2.09343  -0.00171  -0.00073   0.00000  -0.00074   2.09269
    A2        2.09862   0.00766   0.00786   0.00000   0.00787   2.10648
    A3        2.09113  -0.00595  -0.00713   0.00000  -0.00713   2.08401
    A4        2.09940  -0.00010   0.00003   0.00000   0.00002   2.09941
    A5        2.09576   0.00710   0.00781   0.00000   0.00782   2.10358
    A6        2.08801  -0.00700  -0.00784   0.00000  -0.00783   2.08018
    A7        2.09354   0.00042  -0.00053   0.00000  -0.00053   2.09301
    A8        2.06394  -0.00914  -0.00704   0.00000  -0.00703   2.05691
    A9        2.12560   0.00867   0.00751   0.00000   0.00746   2.13306
   A10        2.07242   0.00378   0.00344   0.00000   0.00350   2.07592
   A11        2.17427   0.00627   0.00253   0.00000   0.00236   2.17663
   A12        2.03637  -0.01003  -0.00597   0.00000  -0.00587   2.03050
   A13        2.10577  -0.00029  -0.00071   0.00000  -0.00074   2.10502
   A14        2.08495  -0.00667  -0.00721   0.00000  -0.00720   2.07775
   A15        2.09245   0.00696   0.00793   0.00000   0.00794   2.10039
   A16        2.09673  -0.00203  -0.00129   0.00000  -0.00131   2.09542
   A17        2.08957  -0.00566  -0.00669   0.00000  -0.00668   2.08289
   A18        2.09689   0.00769   0.00798   0.00000   0.00799   2.10488
   A19        1.89844  -0.00744  -0.00628   0.00000  -0.00629   1.89214
   A20        1.89384   0.01021   0.01263   0.00000   0.01281   1.90665
   A21        1.93248   0.00178  -0.00021   0.00000  -0.00034   1.93214
   A22        1.90187   0.00076  -0.00099   0.00000  -0.00111   1.90076
   A23        1.90582  -0.00066  -0.00331   0.00000  -0.00331   1.90250
   A24        1.93087  -0.00471  -0.00186   0.00000  -0.00186   1.92901
   A25        1.88987   0.00359   0.00242   0.00000   0.00234   1.89221
   A26        1.96946  -0.00536  -0.00527   0.00000  -0.00524   1.96422
   A27        1.90071   0.00431   0.00571   0.00000   0.00575   1.90645
   A28        1.88563   0.00069   0.00317   0.00000   0.00317   1.88880
   A29        1.91856  -0.00111  -0.00040   0.00000  -0.00042   1.91814
   A30        1.89940  -0.00213  -0.00557   0.00000  -0.00557   1.89383
   A31        1.87019   0.01767   0.02490   0.00000   0.02514   1.89533
   A32        1.80974  -0.02765  -0.02374   0.00000  -0.02391   1.78583
   A33        1.94359  -0.00737  -0.01172   0.00000  -0.01197   1.93162
   A34        1.92149   0.00196  -0.00496   0.00000  -0.00555   1.91595
    D1        0.00296   0.00074   0.00096   0.00000   0.00094   0.00390
    D2       -3.13130   0.00054   0.00039   0.00000   0.00039  -3.13092
    D3        3.14039   0.00044   0.00081   0.00000   0.00080   3.14119
    D4        0.00612   0.00023   0.00024   0.00000   0.00024   0.00637
    D5       -0.04059   0.00016   0.00038   0.00000   0.00037  -0.04022
    D6        3.10478  -0.00036  -0.00029   0.00000  -0.00028   3.10450
    D7        3.10515   0.00043   0.00049   0.00000   0.00047   3.10563
    D8       -0.03266  -0.00009  -0.00018   0.00000  -0.00017  -0.03284
    D9        0.07646  -0.00150  -0.00258   0.00000  -0.00254   0.07391
   D10       -3.04977   0.00194   0.00291   0.00000   0.00290  -3.04688
   D11       -3.07243  -0.00123  -0.00195   0.00000  -0.00193  -3.07436
   D12        0.08452   0.00221   0.00354   0.00000   0.00351   0.08803
   D13       -0.11278   0.00066   0.00213   0.00000   0.00210  -0.11068
   D14        3.01099   0.00182   0.00160   0.00000   0.00151   3.01250
   D15        3.01290  -0.00306  -0.00367   0.00000  -0.00372   3.00918
   D16       -0.14652  -0.00191  -0.00420   0.00000  -0.00431  -0.15083
   D17        1.47195  -0.00175  -0.00519   0.00000  -0.00525   1.46671
   D18       -2.74453   0.00076  -0.00273   0.00000  -0.00289  -2.74742
   D19       -0.62229   0.00269   0.00302   0.00000   0.00298  -0.61931
   D20       -1.65398   0.00184   0.00047   0.00000   0.00040  -1.65358
   D21        0.41272   0.00435   0.00293   0.00000   0.00276   0.41548
   D22        2.53496   0.00628   0.00867   0.00000   0.00863   2.54359
   D23        0.07589   0.00005  -0.00089   0.00000  -0.00088   0.07501
   D24       -3.07325   0.00017  -0.00068   0.00000  -0.00068  -3.07393
   D25       -3.04928  -0.00116  -0.00047   0.00000  -0.00041  -3.04969
   D26        0.08477  -0.00105  -0.00026   0.00000  -0.00021   0.08456
   D27       -1.63930  -0.00385  -0.00676   0.00000  -0.00670  -1.64600
   D28        0.44706  -0.00388  -0.00442   0.00000  -0.00442   0.44263
   D29        2.55814  -0.00707  -0.01093   0.00000  -0.01090   2.54724
   D30        1.48480  -0.00259  -0.00720   0.00000  -0.00720   1.47761
   D31       -2.71202  -0.00263  -0.00486   0.00000  -0.00492  -2.71694
   D32       -0.60094  -0.00581  -0.01137   0.00000  -0.01139  -0.61233
   D33        0.00237  -0.00061  -0.00049   0.00000  -0.00047   0.00190
   D34        3.14017  -0.00011   0.00015   0.00000   0.00015   3.14032
   D35       -3.13165  -0.00066  -0.00064   0.00000  -0.00061  -3.13226
   D36        0.00616  -0.00016   0.00000   0.00000   0.00001   0.00617
   D37       -0.90136   0.01627   0.02188   0.00000   0.02161  -0.87975
   D38        1.16434  -0.00094  -0.00381   0.00000  -0.00365   1.16068
   D39        1.16317   0.01361   0.02099   0.00000   0.02076   1.18392
   D40       -3.05432  -0.00360  -0.00470   0.00000  -0.00451  -3.05883
   D41       -3.02459   0.01038   0.01513   0.00000   0.01484  -3.00975
   D42       -0.95889  -0.00683  -0.01056   0.00000  -0.01042  -0.96931
   D43       -0.99293  -0.00408  -0.00151   0.00000  -0.00133  -0.99425
   D44        1.09588  -0.00243   0.00040   0.00000   0.00048   1.09636
   D45       -3.10475  -0.00456  -0.00140   0.00000  -0.00135  -3.10610
   D46        1.22970  -0.01486  -0.01935   0.00000  -0.01898   1.21072
   D47       -0.85122   0.00817   0.01030   0.00000   0.01028  -0.84094
         Item               Value     Threshold  Converged?
 Maximum Force            0.063273     0.000015     NO 
 RMS     Force            0.013945     0.000010     NO 
 Maximum Displacement     0.052956     0.000060     NO 
 RMS     Displacement     0.017212     0.000040     NO 
 Predicted change in Energy=-1.340462D-02
 GradGradGradGradGradGradGradGradGradGradGradGradGradGradGradGradGradGrad

                          Input orientation:                          
 ---------------------------------------------------------------------
 Center     Atomic      Atomic             Coordinates (Angstroms)
 Number     Number       Type             X           Y           Z
 ---------------------------------------------------------------------
      1          6           0       -5.676664   -1.715516    0.044479
      2          6           0       -4.343766   -1.817919   -0.157830
      3          6           0       -3.497064   -0.578569   -0.283475
      4          6           0       -4.063283    0.657289   -0.106165
      5          6           0       -5.556661    0.756806    0.069585
      6          6           0       -6.318094   -0.359607    0.139567
      7          1           0       -1.938976   -0.842701   -1.707438
      8          1           0       -6.285786   -2.593693    0.134520
      9          1           0       -3.877158   -2.780308   -0.237019
     10          6           0       -2.024530   -0.754790   -0.636037
     11          6           0       -3.274146    1.988846   -0.047487
     12          1           0       -6.008597    1.726555    0.145507
     13          1           0       -7.380753   -0.288646    0.265810
     14          1           0       -3.070565    2.219215    0.987056
     15          8           0       -2.020546    1.917747   -0.747203
     16         16           0       -1.123661    0.670204   -0.104539
     17          8           0       -1.120036    0.764502    1.361852
     18          1           0       -3.867313    2.772364   -0.487612
     19          1           0       -1.626997   -1.645757   -0.177886
 ---------------------------------------------------------------------
                    Distance matrix (angstroms):
                    1          2          3          4          5
     1  C    0.000000
     2  C    1.352047   0.000000
     3  C    2.480092   1.506213   0.000000
     4  C    2.873308   2.491585   1.370908   0.000000
     5  C    2.475360   2.855177   2.479883   1.506974   0.000000
     6  C    1.502985   2.472466   2.860965   2.485686   1.353165
     7  H    4.219163   3.022474   2.127222   3.053968   4.336344
     8  H    1.072535   2.111571   3.465893   3.945419   3.429531
     9  H    2.109797   1.072468   2.234789   3.445118   3.927583
    10  C    3.837210   2.595723   1.524372   2.535989   3.906248
    11  C    4.416203   3.955720   2.587857   1.548943   2.596441
    12  H    3.459515   3.927718   3.435903   2.234037   1.072578
    13  H    2.233577   3.426578   3.933041   3.469693   2.111584
    14  H    4.812724   4.385231   3.102217   2.149473   3.026725
    15  O    5.214840   4.438458   2.937132   2.484442   3.810385
    16  S    5.142344   4.069726   2.687842   2.939651   4.437264
    17  O    5.352459   4.401223   3.187664   3.290786   4.621002
    18  H    4.868053   4.626711   3.377501   2.158112   2.688278
    19  H    4.056367   2.722292   2.155734   3.353304   4.612571
                    6          7          8          9         10
     6  C    0.000000
     7  H    4.777184   0.000000
     8  H    2.234326   5.035230   0.000000
     9  H    3.458292   3.110145   2.444249   0.000000
    10  C    4.380916   1.078401   4.704638   2.773836   0.000000
    11  C    3.849135   3.543413   5.486599   4.810860   3.071721
    12  H    2.109003   5.157160   4.329146   5.000118   4.758222
    13  H    1.072482   5.814949   2.555276   4.328556   5.451582
    14  H    4.232612   4.232744   5.850517   5.210008   3.545889
    15  O    4.943846   2.923829   6.270789   5.077304   2.674851
    16  S    5.301154   2.350086   6.112095   4.416484   1.767672
    17  O    5.456868   3.560099   6.282419   4.766947   2.667943
    18  H    4.026030   4.274945   5.918667   5.558332   3.982298
    19  H    4.874561   1.755494   4.764503   2.520700   1.077848
                   11         12         13         14         15
    11  C    0.000000
    12  H    2.753774   0.000000
    13  H    4.706310   2.440967   0.000000
    14  H    1.079257   3.095634   5.038580   0.000000
    15  O    1.437418   4.091215   5.884402   2.049653   0.000000
    16  S    2.523224   5.004099   6.340959   2.716883   1.665468
    17  O    2.850516   5.128652   6.442593   2.461956   2.566905
    18  H    1.076781   2.465695   4.720349   1.765058   2.051416
    19  H    3.992548   5.538546   5.928265   4.287072   3.630091
                   16         17         18         19
    16  S    0.000000
    17  O    1.469424   0.000000
    18  H    3.477564   3.872927   0.000000
    19  H    2.371160   2.904677   4.963339   0.000000
 Symmetry turned off by external request.
 Stoichiometry    C8H8O2S
 Framework group  C1[X(C8H8O2S)]
 Deg. of freedom    51
 Full point group                 C1      NOp   1
 Rotational constants (GHZ):           2.1296057           0.7390064           0.6147257
 Standard basis: VSTO-6G (5D, 7F)
    57 basis functions,   348 primitive gaussians,    58 cartesian basis functions
    29 alpha electrons       29 beta electrons
       nuclear repulsion energy       342.5075394996 Hartrees.
 Integral buffers will be    131072 words long.
 Regular integral format.
 Two-electron integral symmetry is turned off.
 Do NDO integrals.
 One-electron integrals computed using PRISM.
 NBasis=    57 RedAO= F EigKep=  0.00D+00  NBF=    57
 NBsUse=    57 1.00D-04 EigRej=  0.00D+00 NBFU=    57
 Initial guess from the checkpoint file:  "C:\Users\al6323\OneDrive - Imperial College London\Desktop\TSR20251115\Exercise 3\DA reaction\product_endo_opt+freq.chk"
 B after Tr=     0.006074   -0.008680   -0.006356
         Rot=    1.000000   -0.000597   -0.000527    0.000445 Ang=  -0.10 deg.
 Keep J ints in memory in canonical form, NReq=1859402.
 Overlap will be assumed to be unity.
 Requested convergence on RMS density matrix=1.00D-08 within 128 cycles.
 Requested convergence on MAX density matrix=1.00D-06.
 Requested convergence on             energy=1.00D-06.
 No special actions if energy rises.
 SCF Done:  E(RPM6) = -0.507811163130E-01 A.U. after   15 cycles
            NFock= 14  Conv=0.73D-08     -V/T= 0.9995
 Calling FoFJK, ICntrl=      2127 FMM=F ISym2X=0 I1Cent= 0 IOpClX= 0 NMat=1 NMatS=1 NMatT=0.
 -------------------------------------------------------------------
 Center     Atomic                   Forces (Hartrees/Bohr)
 Number     Number              X              Y              Z
 -------------------------------------------------------------------
      1        6          -0.020351427    0.047693214    0.002885786
      2        6           0.026834655    0.043399987   -0.006569364
      3        6          -0.013339550   -0.030467220    0.001159942
      4        6          -0.033269363    0.009902651    0.001177511
      5        6           0.051969967   -0.005971426   -0.003150091
      6        6           0.024181684   -0.044926370   -0.003349454
      7        1           0.002512376   -0.004036180   -0.015854296
      8        1          -0.007531650   -0.002129052    0.001279826
      9        1           0.007166836   -0.003205699   -0.001058407
     10        6          -0.046735079    0.003972613    0.014630904
     11        6          -0.020640079   -0.030679982   -0.010106298
     12        1           0.001705276    0.007840278    0.000062879
     13        1          -0.006341434   -0.004543510    0.000598968
     14        1           0.001792356    0.006126219    0.016686688
     15        8          -0.022637228    0.003789053    0.003341143
     16       16           0.055863808    0.006118742    0.004713517
     17        8          -0.005917219   -0.001917528   -0.001341186
     18        1          -0.001148808    0.012145809   -0.009709250
     19        1           0.005884879   -0.013111600    0.004601180
 -------------------------------------------------------------------
 Cartesian Forces:  Max     0.055863808 RMS     0.019635336

 GradGradGradGradGradGradGradGradGradGradGradGradGradGradGradGradGradGrad
 Berny optimization.
 Using GEDIIS/GDIIS optimizer.
 FormGI is forming the generalized inverse of G from B-inverse, IUseBI=4.
 Internal  Forces:  Max     0.050400864 RMS     0.011085234
 Search for a local minimum.
 Step number   3 out of a maximum of  111
 All quantities printed in internal units (Hartrees-Bohrs-Radians)
 Mixed Optimization -- RFO/linear search
 Update second derivatives using D2CorX and points    1    2    3
 ITU=  0  1  0
 Use linear search instead of GDIIS.
 Linear search step of   0.201 exceeds DXMaxT=   0.084 scaled by   0.838
 Quartic linear search produced a step of  1.67630.
 Iteration  1 RMS(Cart)=  0.02887154 RMS(Int)=  0.00047282
 Iteration  2 RMS(Cart)=  0.00041906 RMS(Int)=  0.00032742
 Iteration  3 RMS(Cart)=  0.00000031 RMS(Int)=  0.00032742
 Variable       Old X    -DE/DX   Delta X   Delta X   Delta X     New X
                                 (Linear)    (Quad)   (Total)
    R1        2.55500   0.00666  -0.00110   0.00000  -0.00109   2.55391
    R2        2.84023  -0.05040  -0.07166   0.00000  -0.07166   2.76857
    R3        2.02680   0.00613   0.00535   0.00000   0.00535   2.03215
    R4        2.84633  -0.04902  -0.07230   0.00000  -0.07229   2.77404
    R5        2.02667   0.00607   0.00521   0.00000   0.00521   2.03188
    R6        2.59064  -0.00839  -0.02087   0.00000  -0.02118   2.56946
    R7        2.88064  -0.01573  -0.02289   0.00000  -0.02290   2.85774
    R8        2.84777  -0.05022  -0.07492   0.00000  -0.07493   2.77283
    R9        2.92708  -0.02258  -0.04179   0.00000  -0.04210   2.88498
   R10        2.55711   0.00518  -0.00299   0.00000  -0.00300   2.55411
   R11        2.02688   0.00637   0.00545   0.00000   0.00545   2.03232
   R12        2.02670   0.00605   0.00524   0.00000   0.00524   2.03194
   R13        2.03788   0.01628   0.01774   0.00000   0.01774   2.05562
   R14        3.34042   0.02284   0.03342   0.00000   0.03367   3.37409
   R15        2.03684   0.01496   0.01657   0.00000   0.01657   2.05341
   R16        2.03950   0.01764   0.01955   0.00000   0.01955   2.05905
   R17        2.71633   0.00183   0.00529   0.00000   0.00525   2.72158
   R18        2.03482   0.01344   0.01432   0.00000   0.01432   2.04914
   R19        3.14728   0.02030   0.02377   0.00000   0.02407   3.17135
   R20        2.77681  -0.00148  -0.00037   0.00000  -0.00037   2.77644
    A1        2.09269  -0.00104  -0.00124   0.00000  -0.00128   2.09140
    A2        2.10648   0.00562   0.01319   0.00000   0.01321   2.11969
    A3        2.08401  -0.00458  -0.01195   0.00000  -0.01192   2.07208
    A4        2.09941  -0.00012   0.00003   0.00000  -0.00001   2.09941
    A5        2.10358   0.00521   0.01311   0.00000   0.01312   2.11670
    A6        2.08018  -0.00509  -0.01313   0.00000  -0.01311   2.06707
    A7        2.09301   0.00013  -0.00089   0.00000  -0.00086   2.09215
    A8        2.05691  -0.00603  -0.01178   0.00000  -0.01172   2.04519
    A9        2.13306   0.00584   0.01251   0.00000   0.01237   2.14544
   A10        2.07592   0.00288   0.00587   0.00000   0.00607   2.08199
   A11        2.17663   0.00333   0.00395   0.00000   0.00346   2.18009
   A12        2.03050  -0.00619  -0.00984   0.00000  -0.00954   2.02096
   A13        2.10502  -0.00035  -0.00125   0.00000  -0.00134   2.10369
   A14        2.07775  -0.00477  -0.01207   0.00000  -0.01202   2.06573
   A15        2.10039   0.00511   0.01332   0.00000   0.01336   2.11375
   A16        2.09542  -0.00142  -0.00220   0.00000  -0.00227   2.09315
   A17        2.08289  -0.00431  -0.01120   0.00000  -0.01116   2.07172
   A18        2.10488   0.00573   0.01340   0.00000   0.01343   2.11831
   A19        1.89214  -0.00554  -0.01055   0.00000  -0.01057   1.88157
   A20        1.90665   0.00877   0.02148   0.00000   0.02194   1.92859
   A21        1.93214   0.00140  -0.00058   0.00000  -0.00097   1.93116
   A22        1.90076  -0.00002  -0.00185   0.00000  -0.00219   1.89857
   A23        1.90250  -0.00075  -0.00556   0.00000  -0.00557   1.89694
   A24        1.92901  -0.00395  -0.00312   0.00000  -0.00312   1.92589
   A25        1.89221   0.00322   0.00393   0.00000   0.00369   1.89591
   A26        1.96422  -0.00308  -0.00879   0.00000  -0.00872   1.95550
   A27        1.90645   0.00451   0.00964   0.00000   0.00977   1.91622
   A28        1.88880  -0.00028   0.00531   0.00000   0.00531   1.89411
   A29        1.91814  -0.00096  -0.00070   0.00000  -0.00074   1.91740
   A30        1.89383  -0.00345  -0.00933   0.00000  -0.00931   1.88452
   A31        1.89533   0.01482   0.04214   0.00000   0.04280   1.93813
   A32        1.78583  -0.02128  -0.04008   0.00000  -0.04053   1.74530
   A33        1.93162  -0.00634  -0.02006   0.00000  -0.02077   1.91085
   A34        1.91595   0.00071  -0.00930   0.00000  -0.01103   1.90492
    D1        0.00390   0.00055   0.00158   0.00000   0.00155   0.00545
    D2       -3.13092   0.00033   0.00065   0.00000   0.00064  -3.13028
    D3        3.14119   0.00036   0.00134   0.00000   0.00132  -3.14068
    D4        0.00637   0.00014   0.00041   0.00000   0.00041   0.00678
    D5       -0.04022   0.00017   0.00062   0.00000   0.00059  -0.03963
    D6        3.10450  -0.00025  -0.00047   0.00000  -0.00043   3.10407
    D7        3.10563   0.00033   0.00079   0.00000   0.00075   3.10638
    D8       -0.03284  -0.00009  -0.00029   0.00000  -0.00027  -0.03311
    D9        0.07391  -0.00134  -0.00426   0.00000  -0.00415   0.06977
   D10       -3.04688   0.00142   0.00485   0.00000   0.00482  -3.04206
   D11       -3.07436  -0.00108  -0.00323   0.00000  -0.00316  -3.07752
   D12        0.08803   0.00168   0.00589   0.00000   0.00581   0.09384
   D13       -0.11068   0.00074   0.00352   0.00000   0.00344  -0.10724
   D14        3.01250   0.00149   0.00253   0.00000   0.00227   3.01477
   D15        3.00918  -0.00230  -0.00623   0.00000  -0.00637   3.00281
   D16       -0.15083  -0.00154  -0.00723   0.00000  -0.00754  -0.15837
   D17        1.46671  -0.00152  -0.00880   0.00000  -0.00896   1.45775
   D18       -2.74742   0.00024  -0.00485   0.00000  -0.00533  -2.75276
   D19       -0.61931   0.00202   0.00500   0.00000   0.00489  -0.61443
   D20       -1.65358   0.00138   0.00068   0.00000   0.00049  -1.65309
   D21        0.41548   0.00314   0.00462   0.00000   0.00411   0.41959
   D22        2.54359   0.00492   0.01447   0.00000   0.01433   2.55792
   D23        0.07501  -0.00014  -0.00148   0.00000  -0.00146   0.07355
   D24       -3.07393  -0.00003  -0.00114   0.00000  -0.00116  -3.07508
   D25       -3.04969  -0.00092  -0.00069   0.00000  -0.00051  -3.05020
   D26        0.08456  -0.00082  -0.00036   0.00000  -0.00021   0.08435
   D27       -1.64600  -0.00290  -0.01124   0.00000  -0.01108  -1.65708
   D28        0.44263  -0.00302  -0.00742   0.00000  -0.00742   0.43521
   D29        2.54724  -0.00627  -0.01827   0.00000  -0.01817   2.52907
   D30        1.47761  -0.00208  -0.01207   0.00000  -0.01207   1.46554
   D31       -2.71694  -0.00220  -0.00825   0.00000  -0.00841  -2.72535
   D32       -0.61233  -0.00545  -0.01909   0.00000  -0.01916  -0.63149
   D33        0.00190  -0.00048  -0.00079   0.00000  -0.00074   0.00116
   D34        3.14032  -0.00007   0.00025   0.00000   0.00027   3.14059
   D35       -3.13226  -0.00054  -0.00102   0.00000  -0.00094  -3.13319
   D36        0.00617  -0.00014   0.00002   0.00000   0.00007   0.00624
   D37       -0.87975   0.01272   0.03623   0.00000   0.03542  -0.84433
   D38        1.16068  -0.00060  -0.00612   0.00000  -0.00562   1.15506
   D39        1.18392   0.01108   0.03479   0.00000   0.03406   1.21798
   D40       -3.05883  -0.00224  -0.00755   0.00000  -0.00699  -3.06581
   D41       -3.00975   0.00773   0.02488   0.00000   0.02400  -2.98574
   D42       -0.96931  -0.00558  -0.01747   0.00000  -0.01704  -0.98635
   D43       -0.99425  -0.00325  -0.00223   0.00000  -0.00168  -0.99594
   D44        1.09636  -0.00132   0.00081   0.00000   0.00105   1.09741
   D45       -3.10610  -0.00459  -0.00226   0.00000  -0.00211  -3.10821
   D46        1.21072  -0.01134  -0.03181   0.00000  -0.03067   1.18005
   D47       -0.84094   0.00669   0.01723   0.00000   0.01707  -0.82387
         Item               Value     Threshold  Converged?
 Maximum Force            0.050401     0.000015     NO 
 RMS     Force            0.011085     0.000010     NO 
 Maximum Displacement     0.089085     0.000060     NO 
 RMS     Displacement     0.028896     0.000040     NO 
 Predicted change in Energy=-1.531747D-02
 GradGradGradGradGradGradGradGradGradGradGradGradGradGradGradGradGradGrad

                          Input orientation:                          
 ---------------------------------------------------------------------
 Center     Atomic      Atomic             Coordinates (Angstroms)
 Number     Number       Type             X           Y           Z
 ---------------------------------------------------------------------
      1          6           0       -5.660866   -1.684807    0.042134
      2          6           0       -4.327633   -1.782018   -0.156643
      3          6           0       -3.506440   -0.570964   -0.274537
      4          6           0       -4.074937    0.652143   -0.102461
      5          6           0       -5.529371    0.750608    0.064745
      6          6           0       -6.289702   -0.364713    0.133438
      7          1           0       -1.976673   -0.852345   -1.708727
      8          1           0       -6.279983   -2.559469    0.132002
      9          1           0       -3.843567   -2.738702   -0.237551
     10          6           0       -2.047769   -0.757079   -0.627452
     11          6           0       -3.308568    1.971146   -0.042299
     12          1           0       -5.970132    1.728909    0.137339
     13          1           0       -7.356372   -0.308268    0.256739
     14          1           0       -3.117707    2.215434    1.002271
     15          8           0       -2.046740    1.895052   -0.732345
     16         16           0       -1.093693    0.661158   -0.111396
     17          8           0       -1.093486    0.744206    1.355482
     18          1           0       -3.895200    2.757986   -0.503365
     19          1           0       -1.655760   -1.662257   -0.171687
 ---------------------------------------------------------------------
                    Distance matrix (angstroms):
                    1          2          3          4          5
     1  C    0.000000
     2  C    1.351470   0.000000
     3  C    2.445911   1.467961   0.000000
     4  C    2.827970   2.447842   1.359702   0.000000
     5  C    2.439067   2.812007   2.440064   1.467321   0.000000
     6  C    1.465067   2.437748   2.820555   2.448433   1.351577
     7  H    4.163146   2.966525   2.115718   3.040771   4.282094
     8  H    1.075368   2.121183   3.436855   3.902775   3.394783
     9  H    2.119314   1.075226   2.194109   3.401414   3.886979
    10  C    3.789919   2.543607   1.512252   2.524070   3.856657
    11  C    4.348152   3.890734   2.560353   1.526666   2.536363
    12  H    3.429019   3.887267   3.395414   2.192873   1.075460
    13  H    2.194461   3.393536   3.895284   3.437910   2.120380
    14  H    4.754093   4.334354   3.089557   2.140234   2.973348
    15  O    5.145592   4.365175   2.901990   2.460724   3.751510
    16  S    5.136749   4.053335   2.714054   2.981271   4.440075
    17  O    5.337223   4.373561   3.195150   3.320109   4.619862
    18  H    4.811815   4.573714   3.359375   2.151187   2.650063
    19  H    4.010873   2.674598   2.150934   3.348680   4.569757
                    6          7          8          9         10
     6  C    0.000000
     7  H    4.715249   0.000000
     8  H    2.194778   4.982072   0.000000
     9  H    3.428853   3.034468   2.470793   0.000000
    10  C    4.327458   1.087790   4.662297   2.702544   0.000000
    11  C    3.791343   3.538789   5.420900   4.744156   3.061899
    12  H    2.117875   5.100838   4.299561   4.962094   4.706376
    13  H    1.075256   5.753281   2.498415   4.300132   5.400415
    14  H    4.180141   4.250028   5.792846   5.158246   3.554799
    15  O    4.884552   2.916577   6.205659   4.994506   2.654205
    16  S    5.301968   2.371036   6.109770   4.374560   1.785489
    17  O    5.451950   3.566283   6.269843   4.715014   2.663933
    18  H    3.986277   4.262410   5.862270   5.503354   3.972918
    19  H    4.821840   1.766758   4.720239   2.439175   1.086618
                   11         12         13         14         15
    11  C    0.000000
    12  H    2.678595   0.000000
    13  H    4.655091   2.466983   0.000000
    14  H    1.089601   3.020123   4.989105   0.000000
    15  O    1.440196   4.022059   5.833104   2.063615   0.000000
    16  S    2.574201   4.998162   6.347949   2.784360   1.678204
    17  O    2.892363   5.122030   6.445051   2.527201   2.567521
    18  H    1.084360   2.403091   4.686084   1.779269   2.052777
    19  H    3.993762   5.496300   5.874846   4.307199   3.622382
                   16         17         18         19
    16  S    0.000000
    17  O    1.469227   0.000000
    18  H    3.521188   3.919213   0.000000
    19  H    2.391195   2.905076   4.966251   0.000000
 Symmetry turned off by external request.
 Stoichiometry    C8H8O2S
 Framework group  C1[X(C8H8O2S)]
 Deg. of freedom    51
 Full point group                 C1      NOp   1
 Rotational constants (GHZ):           2.1605345           0.7451233           0.6203076
 Standard basis: VSTO-6G (5D, 7F)
    57 basis functions,   348 primitive gaussians,    58 cartesian basis functions
    29 alpha electrons       29 beta electrons
       nuclear repulsion energy       343.7927247586 Hartrees.
 Integral buffers will be    131072 words long.
 Regular integral format.
 Two-electron integral symmetry is turned off.
 Do NDO integrals.
 One-electron integrals computed using PRISM.
 NBasis=    57 RedAO= F EigKep=  0.00D+00  NBF=    57
 NBsUse=    57 1.00D-04 EigRej=  0.00D+00 NBFU=    57
 Initial guess from the checkpoint file:  "C:\Users\al6323\OneDrive - Imperial College London\Desktop\TSR20251115\Exercise 3\DA reaction\product_endo_opt+freq.chk"
 B after Tr=     0.010149   -0.014799   -0.011923
         Rot=    0.999999   -0.001007   -0.000950    0.000761 Ang=  -0.18 deg.
 Keep J ints in memory in canonical form, NReq=1859402.
 Overlap will be assumed to be unity.
 Requested convergence on RMS density matrix=1.00D-08 within 128 cycles.
 Requested convergence on MAX density matrix=1.00D-06.
 Requested convergence on             energy=1.00D-06.
 No special actions if energy rises.
 SCF Done:  E(RPM6) = -0.657046825407E-01 A.U. after   16 cycles
[...]
 ,-0.2693703,-0.0448988,0.1088998,-0.6883592,-0.144795,0.0210147,-0.116
 2247,-0.8039263,0.5453236,0.174394,-0.1335876,0.203497,-0.173108,0.098
 193,-0.3183905,0.1014938,-0.1205436,0.1363143,-0.0863953,-0.0015565,-0
 .0962074,0.2261291,0.0198628,-0.0074713,0.0218717,0.1488193,0.323196,-
 0.0016088,-0.0235197,-0.0198423,0.0822069,-0.0023795,-0.0327869,-0.005
 6071,0.1596459,0.0300184,-0.0300465,0.0142129,-0.0138841,0.1415228,0.0
 271807,0.024085,0.0936588,0.1678497,-1.0642366,0.2642705,-0.1154497,-0
 .0051438,-0.6450011,0.0764523,0.0746607,0.0113334,-0.5639356,1.6426517
 ,-0.0077771,0.0909013,0.0559635,1.3800411,-0.0902197,0.9863709,0.12632
 95,1.5815816,-0.7680846,-0.041567,0.1824683,-0.05037,-0.6127593,0.0523
 12,-0.7505221,-0.1096117,-0.9462149,0.0115541,0.0037775,0.0216339,-0.0
 383566,0.2094767,-0.0464475,0.0813201,-0.0911581,0.1767357,0.1844166,-
 0.0629101,-0.0118724,-0.0463152,0.2889669,0.0178259,-0.0336676,-0.0630
 231,0.1904704|Polar=116.5149223,8.1789855,105.9922831,-0.9011607,3.370
 0481,50.2884401|HyperPolar=-122.487824,3.7403475,112.8150489,-39.50861
 59,61.6413838,-6.9043059,31.2450834,-6.8751903,-4.1066333,-115.0368853
 |PG=C01 [X(C8H8O2S1)]|NImag=0||0.63726336,-0.01310535,0.62134989,-0.08
 916464,0.03520995,0.15983067,-0.32400514,-0.05195050,0.04256050,0.6514
 7258,0.07813973,-0.09682765,-0.01624972,0.01249675,0.59629865,0.051959
 71,0.00689110,-0.07278242,-0.08994481,0.02859544,0.15776666,-0.0563724
 5,-0.01963984,0.00965360,-0.15003255,-0.15400126,0.00374800,0.66517435
 ,-0.12683267,0.06415085,0.02689540,-0.03184491,-0.23374514,-0.00564642
 ,-0.01330816,0.65111329,0.00215192,0.00753106,0.00478030,0.01213469,0.
 01554720,-0.06603372,-0.09607381,0.03735751,0.18433854,-0.07995963,0.0
 5050485,0.01717238,0.09590138,0.03780428,-0.01298160,-0.12709141,0.019
 12788,0.01274208,0.63881855,0.04780088,-0.04034381,-0.01125117,-0.0654
 0070,-0.08885640,0.00510536,0.14195760,-0.26256324,-0.03929307,0.00818
 024,0.68247276,0.01713602,-0.01146753,-0.00681460,-0.02060280,-0.01345
 296,0.00752279,0.02189437,-0.01719120,-0.06906925,-0.08344508,0.041240
 37,0.17834441,0.09770561,-0.06775928,-0.02104051,-0.09370279,-0.041316
 97,0.01300990,-0.02953049,0.13936507,0.01572561,-0.29098343,-0.0442436
 2,0.03764914,0.62238315,0.03996840,-0.09389667,-0.01401568,-0.04322734
 ,-0.02978175,0.00549755,0.03362795,0.04226526,-0.00346510,0.07627769,-
 0.09180201,-0.01559753,0.04098401,0.63033204,-0.01394139,0.00522559,0.
 00915802,0.01355134,0.00579385,-0.00498321,0.00815272,-0.02250275,0.00
 157176,0.04558201,0.00602948,-0.07211148,-0.08228589,0.02843809,0.1579
 9962,-0.13479995,0.14941230,0.02281061,-0.03081534,0.03623685,0.009029
 43,-0.00698159,-0.00844280,0.00003362,-0.05444209,-0.02217913,0.008856
 93,-0.17044553,-0.17603826,0.00636471,0.60313842,0.01767524,-0.2716801
 7,-0.01735770,0.14365096,0.04099422,-0.02281537,-0.01006294,-0.1168247
 5,-0.00598902,-0.12850788,0.06069060,0.02679280,-0.04631069,-0.2569851
 8,-0.00620386,0.01519586,0.65616289,0.01354041,-0.04067623,-0.07056153
 ,0.01670695,-0.00410530,0.00328071,-0.00006542,-0.00651783,-0.00371786
 ,0.00159135,0.00788341,0.00568131,0.01559770,0.01730656,-0.06567051,-0
 .08103394,0.03351094,0.15698283,0.00014779,-0.00001582,-0.00069739,-0.
 00136553,-0.00028944,0.00010201,-0.01636405,0.00434933,0.02922205,-0.0
 0080904,0.00005339,0.00024115,-0.00031010,-0.00003691,-0.00083595,-0.0
 0003696,0.00018577,-0.00001411,0.04869805,0.00030652,-0.00013784,0.000
 03570,-0.00054501,-0.00048707,-0.00023086,0.00459604,0.00440960,-0.004
 56360,0.00047750,-0.00019781,0.00012672,-0.00020004,-0.00018309,0.0000
 4476,-0.00010332,0.00016234,0.00003037,-0.00125834,0.03794106,0.000040
 88,-0.00014763,0.00014510,-0.00013240,-0.00005222,-0.00030737,0.019517
 77,-0.00293088,-0.01385361,-0.00039568,0.00010235,0.00000348,0.0001001
 6,0.00011936,0.00009728,-0.00013894,-0.00002949,-0.00001767,-0.0327238
 0,0.02612531,0.25305115,-0.09143834,-0.08536170,0.00308970,-0.03281380
 ,-0.02458635,0.00515368,-0.00272014,0.00086987,0.00158868,0.00033480,-
 0.00001870,-0.00005338,-0.00061015,0.00119979,0.00113623,0.00697935,0.
 00615183,0.00016530,-0.00000947,0.00002099,0.00001212,0.12072544,-0.08
 521020,-0.16196124,0.00714971,-0.01006810,-0.00055717,0.00132059,-0.00
 017817,0.00013516,-0.00029980,0.00027847,0.00025213,-0.00009379,0.0014
 4929,-0.00230487,-0.00077096,-0.00837945,-0.04017690,-0.00164592,-0.00
 006009,0.00003037,0.00007049,0.10132512,0.20439980,0.00306125,0.007168
 82,-0.04201556,0.00618233,0.00399462,0.00469343,0.00149073,-0.00061068
 ,0.00541330,-0.00002984,0.00003120,0.00024462,0.00114145,-0.00072262,0
 .00493679,-0.00079946,-0.00424754,0.00558280,0.00007723,0.00001455,0.0
 0003517,-0.01048602,-0.00584903,0.02508528,-0.02714012,0.02807120,0.00
 773287,-0.06656904,0.06984648,0.00903307,0.00690996,-0.01399466,-0.001
 05708,-0.00114752,-0.00115914,0.00101413,0.00034770,-0.00021998,-0.000
 04734,-0.00294769,-0.00038202,0.00148180,-0.00003192,-0.00038036,0.000
 05562,-0.00076995,0.00027573,-0.00008391,0.09339474,0.01438140,-0.0059
 8256,-0.00339076,0.06984277,-0.18354128,-0.02179364,-0.00030438,-0.039
 10813,-0.00293192,-0.00152205,-0.00210670,-0.00023202,-0.00042643,0.00
 047275,0.00007386,0.00006937,0.00048039,-0.00032003,-0.00013996,0.0000
 7284,0.00015627,-0.00003646,0.00091150,0.00015847,-0.08124687,0.230561
 01,0.00678810,-0.00578288,0.00404630,0.00907913,-0.02177587,-0.0444335
 0,-0.00025237,-0.00066230,0.00594904,0.00102716,-0.00026610,0.00493460
 ,-0.00006628,0.00007167,0.00008646,0.00152978,-0.00029813,0.00527671,0
 .00037678,0.00016765,0.00008432,-0.00010678,0.00010492,-0.00131921,-0.
 01779460,0.02834387,0.02816127,0.00063193,-0.00289952,0.00055884,-0.04
 335353,-0.01693638,0.00872161,-0.23595933,0.02131139,0.03503523,-0.028
 55171,0.01769172,0.00680495,0.00096696,0.00229557,0.00139910,-0.000806
 41,0.00043900,0.00017736,-0.03412940,0.00360122,0.02331434,-0.00028815
 ,0.00049246,-0.00002519,-0.00120676,-0.00021536,-0.00008962,0.46180470
 ,-0.00105406,-0.00241448,-0.00028133,-0.02565093,0.00032974,0.00482190
 ,0.02546325,-0.05603886,-0.00284247,0.02814823,-0.00812048,-0.00698964
 ,-0.00024021,-0.00231199,-0.00067072,0.00037212,0.00114350,0.00007508,
 0.00230866,-0.03287267,-0.01563803,-0.00048322,0.00005386,0.00008789,-
 0.00033131,-0.00138898,0.00002806,-0.03589890,0.36783166,0.00040752,-0
 .00017460,0.00492688,0.00769918,0.00338409,0.00552178,0.03591897,-0.00
 220412,-0.06737470,0.00772445,-0.00492146,0.00286415,0.00043527,-0.000
 63954,0.00536447,0.00048943,0.00001976,0.00011254,0.02197094,-0.018448
 67,-0.20717437,-0.00009893,-0.00003436,-0.00047616,0.00003885,0.000009
 40,-0.00198422,-0.02789717,-0.01702069,0.37985885,0.00125899,-0.000133
 09,-0.00015426,-0.00208320,0.00140532,0.00121567,0.01159259,0.00071809
 ,-0.00118523,-0.08854679,-0.07200553,-0.00234649,-0.03544781,-0.026741
 48,0.00496471,-0.00207384,0.00211774,0.00141800,0.00017634,0.00033771,
 0.00019878,-0.00027537,-0.00034180,-0.00011730,0.00039798,0.00004565,-
 0.00018034,-0.00329115,-0.00361123,0.00134331,0.45144830,0.00016473,-0
 .00050309,-0.00006485,0.00140450,-0.00099042,-0.00085576,-0.00665982,-
 0.04343770,-0.00282643,-0.06539324,-0.18727237,-0.00234838,-0.02193456
 ,-0.00530452,0.00305936,0.00120986,0.00161911,-0.00029528,0.00022373,-
 0.00017680,0.00007524,0.00000418,0.00001471,0.00006311,-0.00019433,-0.
 00036576,0.00005567,-0.00296874,-0.00184101,-0.00159446,0.01723900,0.4
 5595248,-0.00026341,-0.00024080,0.00006256,0.00186722,-0.00063696,0.00
 527203,-0.00282260,-0.00344324,0.00481140,-0.00238074,0.00035072,-0.05
 992066,0.00473637,0.00330226,0.00450095,0.00147100,-0.00043788,0.00454
 292,-0.00006658,-0.00027759,-0.00035130,-0.00003535,0.00020727,-0.0008
 5087,-0.00020620,0.00002086,-0.00035157,0.00377915,0.00101992,-0.00153
 918,-0.01789283,-0.01192661,0.39675326,-0.00099618,-0.00152859,0.00108
 100,0.00027780,-0.00011703,-0.00005477,-0.00272655,-0.00064325,0.00141
 912,-0.02695134,0.02728709,0.00780809,-0.06798926,0.07089060,0.0099312
 6,0.00638390,-0.01292581,-0.00106359,-0.00001839,-0.00001022,0.0000058
 5,0.00020603,-0.00019555,-0.00011147,-0.00006571,0.00010321,-0.0001262
 6,-0.00026093,0.00048028,-0.00007386,-0.00303178,-0.00006749,0.0003521
 8,0.09514688,-0.00187418,-0.00193122,-0.00022222,-0.00024738,0.0006112
 0,0.00012466,0.00048442,-0.00023026,-0.00055019,0.01312560,-0.00419047
 ,-0.00306030,0.07062872,-0.18101000,-0.02294523,0.00111156,-0.04064092
 ,-0.00357954,0.00005197,0.00000258,-0.00004629,0.00012815,-0.00039946,
 -0.00001622,0.00010269,-0.00019643,0.00002786,-0.00053684,-0.00007516,
 0.00006906,-0.00000404,0.00038271,0.00014044,-0.08197421,0.22780519,0.
 00106191,-0.00026543,0.00536036,-0.00009106,0.00004024,0.00011173,0.00
 143883,-0.00026282,0.00500273,0.00697470,-0.00561967,0.00415456,0.0098
 0273,-0.02299654,-0.04534183,0.00000165,-0.00103282,0.00577091,0.00007
 517,-0.00003416,0.00002302,-0.00009072,0.00002632,-0.00034136,-0.00012
 906,0.00002435,-0.00079263,-0.00008504,-0.00003799,-0.00046722,0.00016
 547,0.00015369,-0.00140872,-0.01895396,0.02970865,0.02890551,-0.022179
 38,0.01513504,0.00594547,0.00006408,0.00114498,0.00100666,-0.00004031,
 0.00028291,0.00011521,-0.00020009,-0.00189975,0.00088117,-0.02943952,-
 0.01310866,0.00522257,-0.21298964,0.01234921,0.03151319,0.00000801,0.0
 0005679,0.00006846,0.00054060,0.00047565,-0.00026266,-0.00019913,0.000
 12798,-0.00000751,0.00055705,-0.00010170,-0.00036053,-0.00038446,-0.00
 002817,0.00002517,0.00032853,-0.00059607,-0.00033184,0.26412372,0.0294
 3463,-0.00987697,-0.00633310,0.00085475,-0.00274798,-0.00068792,-0.000
 03537,0.00012971,-0.00000762,-0.00119398,-0.00227645,-0.00036695,-0.02
 739434,-0.00432824,0.00420844,0.01226551,-0.03502301,-0.00173120,-0.00
 001135,-0.00000790,-0.00000466,0.00077475,-0.00039795,-0.00008519,0.00
 044648,0.00002256,-0.00005778,-0.00000290,0.00004284,0.00007749,-0.000
 27710,0.00013072,0.00006461,-0.00090270,-0.00023590,0.00023666,-0.0137
 6254,0.05467519,0.00699167,-0.00377987,0.00403100,0.00094049,-0.000731
 99,0.00491829,0.00010061,-0.00008600,0.00027671,0.00094644,-0.00020004
 ,0.00531942,0.00424222,0.00167745,0.00469195,0.03145471,-0.00175411,-0
 .04714821,0.00013725,-0.00001378,-0.00001677,-0.00024509,-0.00003187,-
 0.00109816,0.00000997,0.00000115,-0.00029502,-0.00030752,0.00006819,-0
 .00086688,-0.00002294,0.00002209,-0.00027242,-0.00035925,0.00018271,-0
 .00124335,-0.04385114,0.00463674,0.03158967,0.00023778,-0.00033204,-0.
 00007705,-0.00022774,-0.00026173,0.00056352,-0.00035534,-0.00013446,-0
 .00014920,-0.00010361,-0.01197364,-0.01069088,-0.00134165,-0.00089337,
 0.00001783,0.00019911,0.00052767,0.00010380,0.00001378,0.00006953,0.00
 004149,0.00001698,0.00005110,-0.00005115,-0.00001856,-0.00002318,-0.00
 001046,-0.00005113,0.00006299,-0.00011617,-0.03100221,-0.00533457,-0.0
 1878580,-0.00036616,-0.00023297,-0.00013795,0.00000112,0.00001017,-0.0
 0003262,0.05086426,0.00017124,-0.00000445,-0.00001260,0.00016445,-0.00
 037800,0.00073834,-0.00132110,-0.00053699,0.00010345,-0.01230246,-0.02
 315816,-0.02362204,-0.00036485,-0.00082950,-0.00030032,0.00007652,0.00
 006155,0.00064933,0.00002760,-0.00004731,-0.00006164,-0.00004250,-0.00
 002380,-0.00011724,-0.00004287,-0.00003592,-0.00005771,0.00006782,0.00
 041034,0.00005824,-0.00245822,-0.05600436,-0.05853350,-0.00015963,0.00
 013997,-0.00022975,-0.00003658,0.00000364,-0.00003729,0.00729948,0.074
 90585,0.00009974,0.00017531,-0.00000588,-0.00014727,0.00004588,-0.0000
 8767,0.00037760,0.00042647,-0.00008911,-0.00678267,-0.01295096,-0.0037
 8194,0.00015536,0.00008808,-0.00013610,0.00002503,-0.00013362,0.000017
 73,-0.00000659,-0.00006691,-0.00002967,-0.00005677,-0.00008480,0.00001
 432,0.00004229,-0.00002208,0.00001661,-0.00017589,0.00011265,-0.000142
 68,-0.01211194,-0.05881169,-0.17827802,-0.00018750,0.00006579,0.000140
 64,-0.00004598,0.00003398,0.00004341,0.00474388,0.08021400,0.22087579,
 -0.00067848,-0.00010632,0.00002747,0.00212056,-0.00034280,-0.00024027,
 -0.00568090,0.00334847,0.00173254,-0.03928166,-0.01698607,0.01110940,-
 0.00088374,-0.00399795,-0.00010075,-0.00094737,-0.00059407,-0.00003209
 ,-0.00101251,-0.00004368,-0.00139922,0.00030356,0.00035856,-0.00004881
 ,-0.00039950,0.00020841,0.00005171,0.01791718,0.00385648,-0.00041977,-
 0.20055463,0.00908580,0.08482839,0.00055728,-0.00020133,-0.00007457,0.
 00014084,-0.00024686,-0.00003947,-0.02046931,0.00521666,0.01861350,0.3
 6324425,0.00015611,0.00021221,0.00001727,-0.00101548,-0.00011474,-0.00
 012812,0.00407108,-0.00011920,-0.00018416,-0.02451911,0.00029496,0.008
 39460,-0.00126131,-0.00167613,0.00021966,-0.00102742,0.00020836,-0.000
 03390,-0.00044470,0.00052273,0.00141677,0.00000378,0.00003475,0.000047
 26,0.00011177,0.00020165,0.00001072,0.00628659,-0.03008795,0.00547587,
 0.00331999,-0.04639822,0.00175618,-0.00007055,-0.00047164,-0.00000539,
 0.00021504,-0.00008802,-0.00006407,0.01289584,0.00113130,-0.00762316,-
 0.07213608,0.17624006,0.00003507,0.00006144,0.00003084,-0.00014429,0.0
 0009542,0.00003259,-0.00014991,-0.00029214,-0.00048505,0.00935141,0.00
 462943,0.00159871,0.00005841,0.00067425,0.00032456,0.00020065,-0.00003
 834,0.00005677,0.00040831,0.00112357,-0.00077572,-0.00005326,-0.000069
 62,-0.00002687,0.00002963,-0.00009233,-0.00009286,-0.00280058,0.000992
 88,0.00389758,0.08065594,0.00302047,-0.07578867,-0.00013003,0.00002329
 ,-0.00012407,-0.00006808,0.00004418,-0.00003961,0.03116626,-0.00853342
 ,-0.01908815,-0.08487086,-0.05124330,0.13354991,0.00013743,-0.00021310
 ,0.00037577,-0.00253596,0.00137234,0.00040879,-0.02392840,-0.02040573,
 -0.00608514,-0.00048667,0.00062257,-0.00074077,0.00042755,-0.00003081,
 0.00020784,0.00063092,0.00028512,-0.00004279,0.00323977,-0.00473937,-0
 .00661899,-0.00034247,-0.00039089,0.00003125,0.00037819,-0.00027103,-0
 .00024185,-0.08907143,-0.04163267,-0.00312472,-0.04010608,0.02889163,-
 0.01266539,-0.00006982,0.00041627,0.00000183,-0.00045671,0.00007018,0.
 00003418,-0.00015554,0.00227998,0.00042257,-0.08207916,0.04373789,-0.0
 0718801,0.27314777,-0.00055851,-0.00009028,0.00018811,0.00245324,0.000
 33385,-0.00034862,-0.02213485,-0.00374104,-0.00001782,-0.00007994,0.00
 005416,0.00017173,-0.00056509,-0.00177396,-0.00009357,0.00057752,-0.00
 049302,-0.00007441,-0.00503203,-0.00658638,-0.01562910,0.00007880,0.00
 000665,-0.00005212,-0.00049488,-0.00014583,-0.00016156,-0.04610592,-0.
 07302205,-0.00769454,0.03547301,-0.00809572,-0.00155560,0.00021974,0.0
 0041861,-0.00001897,-0.00040203,-0.00003618,0.00005934,-0.00050121,-0.
 00109691,-0.00006066,0.05068558,-0.08770032,0.02981211,-0.00028271,0.2
 3150998,0.00029612,0.00032188,-0.00029261,0.00151222,0.00032903,-0.000
 87884,-0.00646600,0.00051712,0.00544469,0.00231175,0.00039286,-0.00061
 583,-0.00014655,0.00011689,-0.00033369,0.00061586,0.00024706,-0.000256
 99,-0.01114458,-0.02138072,-0.01594340,-0.00005431,-0.00029598,0.00015
 415,0.00007054,-0.00040410,0.00043196,-0.00968829,-0.01265004,-0.04061
 631,-0.01331917,-0.00550018,0.00973984,-0.00008503,0.00021713,0.000336
 86,-0.00032326,0.00005562,0.00022156,0.00352983,-0.00111464,0.00203374
 ,-0.01357477,0.03577496,-0.04020918,0.02204858,0.00468156,0.51426678,-
 0.00008820,0.00000945,-0.00007110,0.00038564,-0.00027873,-0.00026489,-
 0.00008023,0.00066329,0.00069354,-0.00025053,0.00012745,-0.00049989,-0
 .00005642,0.00013060,-0.00015731,-0.00013601,-0.00008619,-0.00005600,-
 0.00195880,-0.00274400,-0.00079513,0.00011370,0.00013578,0.00003437,-0
 .00009376,0.00014393,0.00017391,0.00836877,-0.00146746,-0.01867979,-0.
 00079768,-0.00148885,0.00126947,0.00007021,-0.00012563,0.00010566,0.00
 016693,-0.00000811,0.00002970,0.00078389,-0.00079433,0.00090126,0.0053
 5340,0.00644922,-0.01614216,-0.03764650,-0.00548743,0.01915679,0.02506
 355,0.00014613,0.00011214,-0.00007178,-0.00022688,-0.00009630,-0.00017
 973,0.00115909,0.00061431,0.00025528,-0.00031843,0.00025140,0.00023267
 ,0.00004518,0.00017233,-0.00004614,-0.00016804,0.00014740,0.00000597,-
 0.00171970,-0.00242410,-0.00076482,0.00001186,-0.00001869,0.00003337,0
 .00014031,-0.00002372,0.00014032,-0.00097440,-0.00231282,-0.02077577,-
 0.00188218,0.00039059,-0.00076047,-0.00000689,-0.00012031,-0.00001558,
 0.00009783,-0.00000808,0.00000551,-0.00055643,0.00012001,-0.00072914,0
 .00613493,-0.00487817,0.01702253,-0.00582847,-0.01822893,-0.00205468,0
 .00449529,0.02585960,-0.00021375,-0.00012135,0.00019752,-0.00102678,-0
 .00045159,0.00044641,0.00414148,-0.00150364,-0.00211015,-0.00126663,0.
 00039994,0.00057744,0.00020849,-0.00004932,0.00012012,-0.00067258,-0.0
 0022727,0.00017646,-0.00098385,-0.00064699,0.00174940,0.00010105,0.000
 28960,-0.00008806,-0.00004627,0.00044552,-0.00016075,-0.01121590,-0.01
 375050,-0.01692582,0.00374917,0.00284282,-0.00543025,0.00011531,-0.000
 22657,-0.00019582,0.00039344,-0.00004650,-0.00015899,-0.00009269,-0.00
 027450,-0.00162296,-0.01491845,0.01159630,-0.01034268,0.01021135,-0.00
 589619,-0.44036687,0.01397486,0.00611569,0.47526434,-0.00004508,-0.000
 13649,-0.00000806,0.00013274,-0.00020745,-0.00047741,-0.00117593,-0.00
 072782,0.00028755,0.00604063,-0.00788456,0.00455411,-0.00095861,-0.001
 33029,0.00023885,0.00002022,0.00019549,0.00002305,-0.00011017,-0.00002
 626,-0.00001592,0.00004554,0.00005909,0.00002974,-0.00006051,-0.000023
 73,0.00002972,0.00132919,-0.00013041,0.00023884,-0.05720667,0.04558571
 ,-0.04280383,-0.00038877,-0.00031445,0.00027080,0.00003169,-0.00002349
 ,0.00001909,0.00200377,0.00221734,-0.00587684,-0.03679540,0.02556553,-
 0.01083847,-0.00610496,0.00081138,0.00251069,0.00119189,-0.00078592,-0
 .00126963,0.09219140,0.00032722,-0.00002220,-0.00005444,-0.00019777,-0
 .00041567,-0.00064918,-0.00123178,-0.00070824,0.00028876,0.00033204,-0
 .03336000,0.01726331,-0.00062483,-0.00105727,0.00047459,0.00002052,0.0
 0027698,-0.00048807,0.00001273,-0.00006534,-0.00002763,-0.00003014,-0.
 00007433,0.00009422,-0.00002286,-0.00006804,0.00003140,-0.00013118,0.0
 0052042,0.00018125,0.04681001,-0.10852168,0.07129462,-0.00037697,0.000
 14748,0.00032413,-0.00004376,0.00003490,0.00003887,-0.00065876,0.00539
 614,-0.00066269,0.01745165,-0.00558244,0.00269738,0.00125370,-0.000060
 10,0.00059540,-0.00014880,0.00002323,-0.00054676,-0.06275751,0.1435895
 0,0.00008539,-0.00007625,-0.00002369,-0.00010743,-0.00016452,-0.000048
 09,-0.00017587,-0.00014277,-0.00008989,0.00129066,0.00806981,0.0010955
 3,0.00043789,0.00026956,-0.00009027,-0.00014056,0.00013347,-0.00009826
 ,0.00008408,-0.00000795,0.00016973,0.00001712,0.00001839,0.00001875,-0
 .00000888,0.00001023,0.00003060,-0.00077917,-0.00013057,-0.00037771,-0
 .04599169,0.07464682,-0.10155374,0.00039984,0.00009348,0.00010044,0.00
 004241,-0.00003272,0.00002287,-0.01001037,0.01114710,-0.01990586,-0.00
 066503,-0.00360789,0.00728040,0.00282233,0.00031112,-0.00129512,-0.000
 47120,0.00020657,0.00101519,0.05311906,-0.09085341,0.11372460,0.000321
 15,0.00004807,0.00020455,-0.00285229,-0.00010837,0.00001264,-0.0246361
 7,0.02629957,-0.00833228,-0.00228782,0.00002938,0.00043110,-0.00013333
 ,0.00024968,0.00059832,0.00007074,0.00009671,-0.00000955,0.00387275,0.
 00058382,-0.00113552,0.00000236,-0.00007673,-0.00003230,-0.00077877,-0
 .00071356,-0.00018058,-0.05460583,0.04991151,-0.02549632,-0.00007388,0
 .00026040,-0.00040611,-0.00010513,0.00005741,-0.00000465,-0.00007342,0
 .00000220,-0.00004844,-0.00002941,0.00000112,0.00001029,-0.00085535,-0
 .00233599,0.00047947,0.00502211,-0.00865944,0.00275154,-0.00038959,0.0
 0023819,-0.00119021,-0.00014101,0.00001695,0.00005113,0.07767359,-0.00
 003373,-0.00015528,-0.00019194,-0.00049637,-0.00002994,0.00024119,0.01
 751880,-0.00576021,0.00188785,-0.00041536,0.00022999,0.00020081,0.0001
 6550,0.00000120,-0.00003478,-0.00020869,-0.00012050,0.00000675,0.00179
 472,0.00004511,0.00726653,-0.00001012,0.