 Default is to use a total of   8 processors:
                                8 via shared-memory
                                1 via Linda
 Entering Link 1 = C:\G16W\l1.exe PID=      8472.
  
 Copyright (c) 1988-2019, Gaussian, Inc.  All Rights Reserved.
  
 This is part of the Gaussian(R) 16 program.  It is based on
 the Gaussian(R) 09 system (copyright 2009, Gaussian, Inc.),
 the Gaussian(R) 03 system (copyright 2003, Gaussian, Inc.),
 the Gaussian(R) 98 system (copyright 1998, Gaussian, Inc.),
 the Gaussian(R) 94 system (copyright 1995, Gaussian, Inc.),
 the Gaussian 92(TM) system (copyright 1992, Gaussian, Inc.),
 the Gaussian 90(TM) system (copyright 1990, Gaussian, Inc.),
 the Gaussian 88(TM) system (copyright 1988, Gaussian, Inc.),
 the Gaussian 86(TM) system (copyright 1986, Carnegie Mellon
 University), and the Gaussian 82(TM) system (copyright 1983,
 Carnegie Mellon University). Gaussian is a federally registered
 trademark of Gaussian, Inc.
  
 This software contains proprietary and confidential information,
 including trade secrets, belonging to Gaussian, Inc.
  
 This software is provided under written license and may be
 used, copied, transmitted, or stored only in accord with that
 written license.
  
 The following legend is applicable only to US Government
 contracts under FAR:
  
                    RESTRICTED RIGHTS LEGEND
  
 Use, reproduction and disclosure by the US Government is
 subject to restrictions as set forth in subparagraphs (a)
 and (c) of the Commercial Computer Software - Restricted
 Rights clause in FAR 52.227-19.
  
 Gaussian, Inc.
 340 Quinnipiac St., Bldg. 40, Wallingford CT 06492
  
  
 ---------------------------------------------------------------
 Warning -- This program may not be used in any manner that
 competes with the business of Gaussian, Inc. or will provide
 assistance to any competitor of Gaussian, Inc.  The licensee
 of this program is prohibited from giving any competitor of
 Gaussian, Inc. access to this program.  By using this program,
 the user acknowledges that Gaussian, Inc. is engaged in the
 business of creating and licensing software in the field of
 computational chemistry and represents and warrants to the
 licensee that it is not a competitor of Gaussian, Inc. and that
 it will not use this program in any manner prohibited above.
 ---------------------------------------------------------------
  

 Cite this work as:
 Gaussian 16, Revision C.01,
 M. J. Frisch, G. W. Trucks, H. B. Schlegel, G. E. Scuseria, 
 M. A. Robb, J. R. Cheeseman, G. Scalmani, V. Barone, 
 G. A. Petersson, H. Nakatsuji, X. Li, M. Caricato, A. V. Marenich, 
 J. Bloino, B. G. Janesko, R. Gomperts, B. Mennucci, H. P. Hratchian, 
 J. V. Ortiz, A. F. Izmaylov, J. L. Sonnenberg, D. Williams-Young, 
 F. Ding, F. Lipparini, F. Egidi, J. Goings, B. Peng, A. Petrone, 
 T. Henderson, D. Ranasinghe, V. G. Zakrzewski, J. Gao, N. Rega, 
 G. Zheng, W. Liang, M. Hada, M. Ehara, K. Toyota, R. Fukuda, 
 J. Hasegawa, M. Ishida, T. Nakajima, Y. Honda, O. Kitao, H. Nakai, 
 T. Vreven, K. Throssell, J. A. Montgomery, Jr., J. E. Peralta, 
 F. Ogliaro, M. J. Bearpark, J. J. Heyd, E. N. Brothers, K. N. Kudin, 
 V. N. Staroverov, T. A. Keith, R. Kobayashi, J. Normand, 
 K. Raghavachari, A. P. Rendell, J. C. Burant, S. S. Iyengar, 
 J. Tomasi, M. Cossi, J. M. Millam, M. Klene, C. Adamo, R. Cammi, 
 J. W. Ochterski, R. L. Martin, K. Morokuma, O. Farkas, 
 J. B. Foresman, and D. J. Fox, Gaussian, Inc., Wallingford CT, 2019.
 
 ******************************************
 Gaussian 16:  EM64W-G16RevC.01 30-May-2019
                15-Nov-2025 
 ******************************************
 %chk=C:\Users\al6323\OneDrive - Imperial College London\Desktop\TSR20251115\Exer
 cise 3\DA reaction\product_endo_opt+freq.chk
 Default route: MaxDisk=10GB
 --------------------------------------------------------------
 # opt=(tight,maxstep=5) freq rpm6 nosymm geom=connectivity scf
 --------------------------------------------------------------
 1/7=10,8=5,18=20,19=15,26=1,38=1,57=2/1,3;
 2/9=110,12=2,15=1,17=6,18=5,40=1/2;
 3/5=2,25=1,41=3900000,71=1,116=1/1,2,3;
 4/35=1/1;
 5/5=2,35=1,38=5/2;
 6/7=2,8=2,9=2,10=2,28=1/1;
 7/30=1/1,2,3,16;
 1/7=10,8=5,18=20,19=15,26=1/3(2);
 2/9=110,15=1/2;
 99//99;
 2/9=110,15=1/2;
 3/5=2,25=1,41=3900000,71=1,116=1,135=20/1,2,3;
 4/5=5,16=3,35=1/1;
 5/5=2,35=1,38=5/2;
 7/30=1/1,2,3,16;
 1/7=10,8=5,18=20,19=15,26=1/3(-5);
 2/9=110,15=1/2;
 6/7=2,8=2,9=2,10=2,19=2,28=1/1;
 99/9=1/99;
 -------------------
 Title Card Required
 -------------------
 Symbolic Z-matrix:
 Charge =  0 Multiplicity = 1
 C                    -5.64603  -1.72239   0.05962 
 C                    -4.38581  -1.78732  -0.44702 
 C                    -3.52997  -0.51449  -0.45195 
 C                    -4.06633   0.67423  -0.14385 
 C                    -5.44406   0.75059   0.52771 
 C                    -6.18822  -0.38427   0.62525 
 H                    -1.84326  -0.15126  -1.75543 
 H                    -6.2614   -2.59759   0.07524 
 H                    -3.99438  -2.71039  -0.82067 
 C                    -2.02766  -0.48843  -0.75683 
 C                    -3.23524   1.91643  -0.53186 
 H                    -5.81881   1.68152   0.89896 
 H                    -7.15315  -0.35172   1.08649 
 H                    -3.86198   2.78367  -0.52991 
 O                    -2.11468   2.11024   0.32894 
 S                    -1.36036   0.6244    0.4725 
 O                    -1.70279  -0.02905   1.97071 
 H                    -2.84585   1.75144  -1.51474 
 H                    -1.59459  -1.45957  -0.63748 
 

 GradGradGradGradGradGradGradGradGradGradGradGradGradGradGradGradGradGrad
 Berny optimization.
 Initialization pass.
                           ----------------------------
                           !    Initial Parameters    !
                           ! (Angstroms and Degrees)  !
 --------------------------                            --------------------------
 ! Name  Definition              Value          Derivative Info.                !
 --------------------------------------------------------------------------------
 ! R1    R(1,2)                  1.3598         estimate D2E/DX2                !
 ! R2    R(1,6)                  1.5506         estimate D2E/DX2                !
 ! R3    R(1,8)                  1.07           estimate D2E/DX2                !
 ! R4    R(2,3)                  1.5338         estimate D2E/DX2                !
 ! R5    R(2,9)                  1.07           estimate D2E/DX2                !
 ! R6    R(3,4)                  1.34           estimate D2E/DX2                !
 ! R7    R(3,10)                 1.5332         estimate D2E/DX2                !
 ! R8    R(4,5)                  1.5346         estimate D2E/DX2                !
 ! R9    R(4,11)                 1.5441         estimate D2E/DX2                !
 ! R10   R(5,6)                  1.3606         estimate D2E/DX2                !
 ! R11   R(5,12)                 1.07           estimate D2E/DX2                !
 ! R12   R(6,13)                 1.07           estimate D2E/DX2                !
 ! R13   R(7,10)                 1.07           estimate D2E/DX2                !
 ! R14   R(10,16)                1.7874         estimate D2E/DX2                !
 ! R15   R(10,19)                1.07           estimate D2E/DX2                !
 ! R16   R(11,14)                1.07           estimate D2E/DX2                !
 ! R17   R(11,15)                1.4263         estimate D2E/DX2                !
 ! R18   R(11,18)                1.07           estimate D2E/DX2                !
 ! R19   R(15,16)                1.6725         estimate D2E/DX2                !
 ! R20   R(16,17)                1.67           estimate D2E/DX2                !
 ! A1    A(2,1,6)              120.0771         estimate D2E/DX2                !
 ! A2    A(2,1,8)              119.9587         estimate D2E/DX2                !
 ! A3    A(6,1,8)              119.9624         estimate D2E/DX2                !
 ! A4    A(1,2,3)              118.6001         estimate D2E/DX2                !
 ! A5    A(1,2,9)              120.6868         estimate D2E/DX2                !
 ! A6    A(3,2,9)              120.7066         estimate D2E/DX2                !
 ! A7    A(2,3,4)              120.8017         estimate D2E/DX2                !
 ! A8    A(2,3,10)             124.1597         estimate D2E/DX2                !
 ! A9    A(4,3,10)             115.0148         estimate D2E/DX2                !
 ! A10   A(3,4,5)              120.2721         estimate D2E/DX2                !
 ! A11   A(3,4,11)             116.1313         estimate D2E/DX2                !
 ! A12   A(5,4,11)             123.583          estimate D2E/DX2                !
 ! A13   A(4,5,6)              118.7441         estimate D2E/DX2                !
 ! A14   A(4,5,12)             120.6343         estimate D2E/DX2                !
 ! A15   A(6,5,12)             120.6151         estimate D2E/DX2                !
 ! A16   A(1,6,5)              120.1586         estimate D2E/DX2                !
 ! A17   A(1,6,13)             119.9217         estimate D2E/DX2                !
 ! A18   A(5,6,13)             119.9179         estimate D2E/DX2                !
 ! A19   A(3,10,7)             111.0892         estimate D2E/DX2                !
 ! A20   A(3,10,16)            103.8649         estimate D2E/DX2                !
 ! A21   A(3,10,19)            111.0381         estimate D2E/DX2                !
 ! A22   A(7,10,16)            112.4167         estimate D2E/DX2                !
 ! A23   A(7,10,19)            108.6837         estimate D2E/DX2                !
 ! A24   A(16,10,19)           109.7093         estimate D2E/DX2                !
 ! A25   A(4,11,14)            109.652          estimate D2E/DX2                !
 ! A26   A(4,11,15)            112.3662         estimate D2E/DX2                !
 ! A27   A(4,11,18)            107.6164         estimate D2E/DX2                !
 ! A28   A(14,11,15)           110.4234         estimate D2E/DX2                !
 ! A29   A(14,11,18)           109.8656         estimate D2E/DX2                !
 ! A30   A(15,11,18)           106.8241         estimate D2E/DX2                !
 ! A31   A(11,15,16)           106.584          estimate D2E/DX2                !
 ! A32   A(10,16,15)           109.0074         estimate D2E/DX2                !
 ! A33   A(10,16,17)           107.2688         estimate D2E/DX2                !
 ! A34   A(15,16,17)           109.3986         estimate D2E/DX2                !
 ! D1    D(6,1,2,3)             -0.3966         estimate D2E/DX2                !
 ! D2    D(6,1,2,9)            178.6875         estimate D2E/DX2                !
 ! D3    D(8,1,2,3)           -179.9007         estimate D2E/DX2                !
 ! D4    D(8,1,2,9)             -0.8166         estimate D2E/DX2                !
 ! D5    D(2,1,6,5)              4.8392         estimate D2E/DX2                !
 ! D6    D(2,1,6,13)          -175.6422         estimate D2E/DX2                !
 ! D7    D(8,1,6,5)           -175.6567         estimate D2E/DX2                !
 ! D8    D(8,1,6,13)             3.8619         estimate D2E/DX2                !
 ! D9    D(1,2,3,4)             -9.3595         estimate D2E/DX2                !
 ! D10   D(1,2,3,10)           168.7769         estimate D2E/DX2                !
 ! D11   D(9,2,3,4)            171.5565         estimate D2E/DX2                !
 ! D12   D(9,2,3,10)           -10.307          estimate D2E/DX2                !
 ! D13   D(2,3,4,5)             14.1855         estimate D2E/DX2                !
 ! D14   D(2,3,4,11)          -164.5227         estimate D2E/DX2                !
 ! D15   D(10,3,4,5)          -164.1129         estimate D2E/DX2                !
 ! D16   D(10,3,4,11)           17.1789         estimate D2E/DX2                !
 ! D17   D(2,3,10,7)           101.8564         estimate D2E/DX2                !
 ! D18   D(2,3,10,16)         -137.0679         estimate D2E/DX2                !
 ! D19   D(2,3,10,19)          -19.2208         estimate D2E/DX2                !
 ! D20   D(4,3,10,7)           -79.9099         estimate D2E/DX2                !
 ! D21   D(4,3,10,16)           41.1657         estimate D2E/DX2                !
 ! D22   D(4,3,10,19)          159.0129         estimate D2E/DX2                !
 ! D23   D(3,4,5,6)             -9.4503         estimate D2E/DX2                !
 ! D24   D(3,4,5,12)           171.4666         estimate D2E/DX2                !
 ! D25   D(11,4,5,6)           169.1575         estimate D2E/DX2                !
 ! D26   D(11,4,5,12)           -9.9255         estimate D2E/DX2                !
 ! D27   D(3,4,11,14)          162.3593         estimate D2E/DX2                !
 ! D28   D(3,4,11,15)          -74.4367         estimate D2E/DX2                !
 ! D29   D(3,4,11,18)           42.8884         estimate D2E/DX2                !
 ! D30   D(5,4,11,14)          -16.3015         estimate D2E/DX2                !
 ! D31   D(5,4,11,15)          106.9025         estimate D2E/DX2                !
 ! D32   D(5,4,11,18)         -135.7724         estimate D2E/DX2                !
 ! D33   D(4,5,6,1)             -0.2417         estimate D2E/DX2                !
 ! D34   D(4,5,6,13)          -179.7603         estimate D2E/DX2                !
 ! D35   D(12,5,6,1)           178.8415         estimate D2E/DX2                !
 ! D36   D(12,5,6,13)           -0.6771         estimate D2E/DX2                !
 ! D37   D(3,10,16,15)         -57.8984         estimate D2E/DX2                !
 ! D38   D(3,10,16,17)          60.4584         estimate D2E/DX2                !
 ! D39   D(7,10,16,15)          62.2825         estimate D2E/DX2                !
 ! D40   D(7,10,16,17)        -179.3607         estimate D2E/DX2                !
 ! D41   D(19,10,16,15)       -176.6619         estimate D2E/DX2                !
 ! D42   D(19,10,16,17)        -58.3051         estimate D2E/DX2                !
 ! D43   D(4,11,15,16)          47.2066         estimate D2E/DX2                !
 ! D44   D(14,11,15,16)        169.9772         estimate D2E/DX2                !
 ! D45   D(18,11,15,16)        -70.589          estimate D2E/DX2                !
 ! D46   D(11,15,16,10)         12.1153         estimate D2E/DX2                !
 ! D47   D(11,15,16,17)       -104.8962         estimate D2E/DX2                !
 --------------------------------------------------------------------------------
 Trust Radius=5.00D-02 FncErr=1.00D-07 GrdErr=1.00D-07 EigMax=2.50D+02 EigMin=1.00D-04
 Number of steps in this run=    111 maximum allowed number of steps=    114.
 GradGradGradGradGradGradGradGradGradGradGradGradGradGradGradGradGradGrad

                          Input orientation:                          
 ---------------------------------------------------------------------
 Center     Atomic      Atomic             Coordinates (Angstroms)
 Number     Number       Type             X           Y           Z
 ---------------------------------------------------------------------
      1          6           0       -5.646033   -1.722390    0.059624
      2          6           0       -4.385815   -1.787321   -0.447016
      3          6           0       -3.529974   -0.514494   -0.451949
      4          6           0       -4.066334    0.674226   -0.143851
      5          6           0       -5.444064    0.750588    0.527710
      6          6           0       -6.188220   -0.384274    0.625248
      7          1           0       -1.843257   -0.151258   -1.755431
      8          1           0       -6.261401   -2.597592    0.075242
      9          1           0       -3.994376   -2.710390   -0.820672
     10          6           0       -2.027664   -0.488434   -0.756829
     11          6           0       -3.235242    1.916433   -0.531863
     12          1           0       -5.818807    1.681525    0.898958
     13          1           0       -7.153152   -0.351723    1.086492
     14          1           0       -3.861978    2.783669   -0.529909
     15          8           0       -2.114675    2.110243    0.328944
     16         16           0       -1.360362    0.624396    0.472499
     17          8           0       -1.702792   -0.029053    1.970714
     18          1           0       -2.845849    1.751440   -1.514742
     19          1           0       -1.594594   -1.459571   -0.637484
 ---------------------------------------------------------------------
                    Distance matrix (angstroms):
                    1          2          3          4          5
     1  C    0.000000
     2  C    1.359798   0.000000
     3  C    2.489663   1.533811   0.000000
     4  C    2.877606   2.500638   1.340022   0.000000
     5  C    2.524978   2.917356   2.494775   1.534590   0.000000
     6  C    1.550629   2.523283   2.871164   2.492857   1.360586
     7  H    4.497109   3.294428   2.162411   2.867174   4.357967
     8  H    1.070000   2.108818   3.475330   3.946024   3.476072
     9  H    2.116373   1.070000   2.274552   3.452374   3.987242
    10  C    3.909198   2.709975   1.533156   2.425633   3.854479
    11  C    4.404862   3.879280   2.450033   1.544133   2.713077
    12  H    3.510123   3.987230   3.447637   2.274481   1.070000
    13  H    2.281358   3.474298   3.939634   3.477752   2.109101
    14  H    4.882107   4.601655   3.315748   2.154194   2.784775
    15  O    5.218438   4.577247   3.082549   2.468735   3.601805
    16  S    4.903554   3.976839   2.618948   2.775726   4.086025
    17  O    4.697745   4.016907   3.073035   3.248434   4.085000
    18  H    4.731506   4.004293   2.594613   2.128219   3.453120
    19  H    4.119368   2.816845   2.161780   3.302463   4.589216
                    6          7          8          9         10
     6  C    0.000000
     7  H    4.959903   0.000000
     8  H    2.281806   5.371770   0.000000
     9  H    3.509196   3.471346   2.440243   0.000000
    10  C    4.385340   1.070000   4.802646   2.968016   0.000000
    11  C    3.918194   2.776704   5.468331   4.697573   2.700415
    12  H    2.116343   5.119558   4.380095   5.057133   4.671522
    13  H    1.070000   6.025919   2.619500   4.379322   5.448592
    14  H    4.096542   3.767086   5.922956   5.503341   3.758039
    15  O    4.785831   3.087502   6.278806   5.300320   2.817729
    16  S    4.934467   2.408007   5.878707   4.441972   1.787437
    17  O    4.696332   3.730794   5.565171   4.498085   2.784971
    18  H    4.506914   2.164113   5.753966   4.659268   2.502179
    19  H    4.883867   1.738770   4.856146   2.712390   1.070000
                   11         12         13         14         15
    11  C    0.000000
    12  H    2.962641   0.000000
    13  H    4.807664   2.439209   0.000000
    14  H    1.070000   2.661872   4.824444   0.000000
    15  O    1.426261   3.772176   5.658746   2.060145   0.000000
    16  S    2.488630   4.601861   5.906455   3.453312   1.672524
    17  O    3.520825   4.584356   5.531039   4.338963   2.727937
    18  H    1.070000   3.830054   5.453675   1.751545   2.015573
    19  H    3.755035   5.483714   5.924272   4.812244   3.734707
                   16         17         18         19
    16  S    0.000000
    17  O    1.670000   0.000000
    18  H    2.725074   4.077394   0.000000
    19  H    2.372730   2.976708   3.556096   0.000000
 Symmetry turned off by external request.
 Stoichiometry    C8H8O2S
 Framework group  C1[X(C8H8O2S)]
 Deg. of freedom    51
 Full point group                 C1      NOp   1
 Rotational constants (GHZ):           1.8305560           0.7896315           0.6913091
 Standard basis: VSTO-6G (5D, 7F)
    57 basis functions,   348 primitive gaussians,    58 cartesian basis functions
    29 alpha electrons       29 beta electrons
       nuclear repulsion energy       342.5463355874 Hartrees.
 Integral buffers will be    131072 words long.
 Regular integral format.
 Two-electron integral symmetry is turned off.
 Do NDO integrals.
 One-electron integrals computed using PRISM.
 NBasis=    57 RedAO= F EigKep=  0.00D+00  NBF=    57
 NBsUse=    57 1.00D-04 EigRej=  0.00D+00 NBFU=    57
 Nonelectrostatic core Hamiltonian diagonalized for initial guess.
 Keep J ints in memory in canonical form, NReq=1859402.
 Overlap will be assumed to be unity.
 Requested convergence on RMS density matrix=1.00D-08 within 128 cycles.
 Requested convergence on MAX density matrix=1.00D-06.
 Requested convergence on             energy=1.00D-06.
 No special actions if energy rises.
 SCF Done:  E(RPM6) =  0.881876750390E-02 A.U. after   22 cycles
            NFock= 21  Conv=0.59D-08     -V/T= 1.0001

 **********************************************************************

            Population analysis using the SCF Density.

 **********************************************************************

 Alpha  occ. eigenvalues --   -1.16708  -1.07152  -1.03315  -0.99277  -0.96030
 Alpha  occ. eigenvalues --   -0.91500  -0.87446  -0.81023  -0.77914  -0.72005
 Alpha  occ. eigenvalues --   -0.65438  -0.63781  -0.61776  -0.59336  -0.56223
 Alpha  occ. eigenvalues --   -0.55061  -0.54083  -0.53381  -0.52000  -0.49149
 Alpha  occ. eigenvalues --   -0.47480  -0.45430  -0.44317  -0.43385  -0.39141
 Alpha  occ. eigenvalues --   -0.37371  -0.36904  -0.36238  -0.32421
 Alpha virt. eigenvalues --   -0.01893   0.00103   0.00474   0.01887   0.03533
 Alpha virt. eigenvalues --    0.07052   0.09852   0.10108   0.10776   0.13353
 Alpha virt. eigenvalues --    0.13523   0.15294   0.15890   0.16494   0.17128
 Alpha virt. eigenvalues --    0.17557   0.18357   0.18618   0.18823   0.19076
 Alpha virt. eigenvalues --    0.19623   0.19937   0.20807   0.20828   0.20977
 Alpha virt. eigenvalues --    0.21766   0.22066   0.22412
          Condensed to atoms (all electrons):
               1          2          3          4          5          6
     1  C    4.098072   0.000000   0.000000   0.000000   0.000000   0.000000
     2  C    0.000000   4.176821   0.000000   0.000000   0.000000   0.000000
     3  C    0.000000   0.000000   3.919227   0.000000   0.000000   0.000000
     4  C    0.000000   0.000000   0.000000   4.138533   0.000000   0.000000
     5  C    0.000000   0.000000   0.000000   0.000000   4.090985   0.000000
     6  C    0.000000   0.000000   0.000000   0.000000   0.000000   4.159949
     7  H    0.000000   0.000000   0.000000   0.000000   0.000000   0.000000
     8  H    0.000000   0.000000   0.000000   0.000000   0.000000   0.000000
     9  H    0.000000   0.000000   0.000000   0.000000   0.000000   0.000000
    10  C    0.000000   0.000000   0.000000   0.000000   0.000000   0.000000
    11  C    0.000000   0.000000   0.000000   0.000000   0.000000   0.000000
    12  H    0.000000   0.000000   0.000000   0.000000   0.000000   0.000000
    13  H    0.000000   0.000000   0.000000   0.000000   0.000000   0.000000
    14  H    0.000000   0.000000   0.000000   0.000000   0.000000   0.000000
    15  O    0.000000   0.000000   0.000000   0.000000   0.000000   0.000000
    16  S    0.000000   0.000000   0.000000   0.000000   0.000000   0.000000
    17  O    0.000000   0.000000   0.000000   0.000000   0.000000   0.000000
    18  H    0.000000   0.000000   0.000000   0.000000   0.000000   0.000000
    19  H    0.000000   0.000000   0.000000   0.000000   0.000000   0.000000
               7          8          9         10         11         12
     1  C    0.000000   0.000000   0.000000   0.000000   0.000000   0.000000
     2  C    0.000000   0.000000   0.000000   0.000000   0.000000   0.000000
     3  C    0.000000   0.000000   0.000000   0.000000   0.000000   0.000000
     4  C    0.000000   0.000000   0.000000   0.000000   0.000000   0.000000
     5  C    0.000000   0.000000   0.000000   0.000000   0.000000   0.000000
     6  C    0.000000   0.000000   0.000000   0.000000   0.000000   0.000000
     7  H    0.808185   0.000000   0.000000   0.000000   0.000000   0.000000
     8  H    0.000000   0.855182   0.000000   0.000000   0.000000   0.000000
     9  H    0.000000   0.000000   0.846794   0.000000   0.000000   0.000000
    10  C    0.000000   0.000000   0.000000   4.576466   0.000000   0.000000
    11  C    0.000000   0.000000   0.000000   0.000000   4.048706   0.000000
    12  H    0.000000   0.000000   0.000000   0.000000   0.000000   0.849989
    13  H    0.000000   0.000000   0.000000   0.000000   0.000000   0.000000
    14  H    0.000000   0.000000   0.000000   0.000000   0.000000   0.000000
    15  O    0.000000   0.000000   0.000000   0.000000   0.000000   0.000000
    16  S    0.000000   0.000000   0.000000   0.000000   0.000000   0.000000
    17  O    0.000000   0.000000   0.000000   0.000000   0.000000   0.000000
    18  H    0.000000   0.000000   0.000000   0.000000   0.000000   0.000000
    19  H    0.000000   0.000000   0.000000   0.000000   0.000000   0.000000
              13         14         15         16         17         18
     1  C    0.000000   0.000000   0.000000   0.000000   0.000000   0.000000
     2  C    0.000000   0.000000   0.000000   0.000000   0.000000   0.000000
     3  C    0.000000   0.000000   0.000000   0.000000   0.000000   0.000000
     4  C    0.000000   0.000000   0.000000   0.000000   0.000000   0.000000
     5  C    0.000000   0.000000   0.000000   0.000000   0.000000   0.000000
     6  C    0.000000   0.000000   0.000000   0.000000   0.000000   0.000000
     7  H    0.000000   0.000000   0.000000   0.000000   0.000000   0.000000
     8  H    0.000000   0.000000   0.000000   0.000000   0.000000   0.000000
     9  H    0.000000   0.000000   0.000000   0.000000   0.000000   0.000000
    10  C    0.000000   0.000000   0.000000   0.000000   0.000000   0.000000
    11  C    0.000000   0.000000   0.000000   0.000000   0.000000   0.000000
    12  H    0.000000   0.000000   0.000000   0.000000   0.000000   0.000000
    13  H    0.850080   0.000000   0.000000   0.000000   0.000000   0.000000
    14  H    0.000000   0.843631   0.000000   0.000000   0.000000   0.000000
    15  O    0.000000   0.000000   6.487093   0.000000   0.000000   0.000000
    16  S    0.000000   0.000000   0.000000   4.878266   0.000000   0.000000
    17  O    0.000000   0.000000   0.000000   0.000000   6.697675   0.000000
    18  H    0.000000   0.000000   0.000000   0.000000   0.000000   0.878314
    19  H    0.000000   0.000000   0.000000   0.000000   0.000000   0.000000
              19
     1  C    0.000000
     2  C    0.000000
     3  C    0.000000
     4  C    0.000000
     5  C    0.000000
     6  C    0.000000
     7  H    0.000000
     8  H    0.000000
     9  H    0.000000
    10  C    0.000000
    11  C    0.000000
    12  H    0.000000
    13  H    0.000000
    14  H    0.000000
    15  O    0.000000
    16  S    0.000000
    17  O    0.000000
    18  H    0.000000
    19  H    0.796033
 Mulliken charges:
               1
     1  C   -0.098072
     2  C   -0.176821
     3  C    0.080773
     4  C   -0.138533
     5  C   -0.090985
     6  C   -0.159949
     7  H    0.191815
     8  H    0.144818
     9  H    0.153206
    10  C   -0.576466
    11  C   -0.048706
    12  H    0.150011
    13  H    0.149920
    14  H    0.156369
    15  O   -0.487093
    16  S    1.121734
    17  O   -0.697675
    18  H    0.121686
    19  H    0.203967
 Sum of Mulliken charges =   0.00000
 Mulliken charges with hydrogens summed into heavy atoms:
               1
     1  C    0.046747
     2  C   -0.023615
     3  C    0.080773
     4  C   -0.138533
     5  C    0.059026
     6  C   -0.010029
    10  C   -0.180683
    11  C    0.229349
    15  O   -0.487093
    16  S    1.121734
    17  O   -0.697675
 Charge=              0.0000 electrons
 Dipole moment (field-independent basis, Debye):
    X=             -0.7245    Y=             -0.2369    Z=             -5.5871  Tot=              5.6389
 N-N= 3.425463355874D+02 E-N=-5.382796553800D+02  KE=-1.094896903689D+02
 Calling FoFJK, ICntrl=      2127 FMM=F ISym2X=0 I1Cent= 0 IOpClX= 0 NMat=1 NMatS=1 NMatT=0.
 -------------------------------------------------------------------
 Center     Atomic                   Forces (Hartrees/Bohr)
 Number     Number              X              Y              Z
 -------------------------------------------------------------------
      1        6          -0.006584147    0.061669309    0.019133490
      2        6           0.022122589    0.054863123    0.011926898
      3        6          -0.008132268   -0.068343697   -0.011820348
      4        6          -0.056358801    0.035871946    0.027375712
      5        6           0.047663386   -0.019640917   -0.034570803
      6        6           0.035639409   -0.044884854   -0.028202397
      7        1           0.005375806    0.003888935   -0.016713020
      8        1          -0.008989384   -0.000527275    0.003282261
      9        1           0.008197546   -0.001042240   -0.003038988
     10        6          -0.050434536   -0.005058930    0.012252838
     11        6          -0.035938641   -0.016706519    0.015859192
     12        1           0.004835724    0.008109831    0.000263235
     13        1          -0.005443877   -0.007549957    0.001567279
     14        1          -0.004398881    0.018261218    0.005158937
     15        8          -0.011082993   -0.007316177   -0.003880315
     16       16           0.031925169   -0.043636127    0.135194620
     17        8           0.018537616    0.044979025   -0.110820324
     18        1           0.004461095    0.004652320   -0.023879703
     19        1           0.008605188   -0.017589013    0.000911438
 -------------------------------------------------------------------
 Cartesian Forces:  Max     0.135194620 RMS     0.034667505

 GradGradGradGradGradGradGradGradGradGradGradGradGradGradGradGradGradGrad
 Berny optimization.
 FormGI is forming the generalized inverse of G from B-inverse, IUseBI=4.
 Internal  Forces:  Max     0.120821518 RMS     0.018968650
 Search for a local minimum.
 Step number   1 out of a maximum of  111
 All quantities printed in internal units (Hartrees-Bohrs-Radians)
 Mixed Optimization -- RFO/linear search
 Second derivative matrix not updated -- first step.
 ITU=  0
     Eigenvalues ---    0.00627   0.00767   0.00947   0.01041   0.01126
     Eigenvalues ---    0.01328   0.01434   0.01466   0.01687   0.01782
     Eigenvalues ---    0.02058   0.04769   0.05867   0.06642   0.07473
     Eigenvalues ---    0.07946   0.08497   0.09477   0.11630   0.12121
     Eigenvalues ---    0.15997   0.15998   0.15999   0.16000   0.16615
     Eigenvalues ---    0.18520   0.21989   0.22355   0.22875   0.23109
     Eigenvalues ---    0.24478   0.26459   0.27223   0.27253   0.28409
     Eigenvalues ---    0.28651   0.28852   0.37230   0.37230   0.37230
     Eigenvalues ---    0.37230   0.37230   0.37230   0.37230   0.37230
     Eigenvalues ---    0.37603   0.39757   0.40053   0.50383   0.50711
     Eigenvalues ---    0.53656
 RFO step:  Lambda=-9.26858765D-02 EMin= 6.26991436D-03
 Linear search not attempted -- first point.
 Maximum step size (   0.050) exceeded in Quadratic search.
    -- Step size scaled by   0.108
 Iteration  1 RMS(Cart)=  0.00749376 RMS(Int)=  0.00001781
 Iteration  2 RMS(Cart)=  0.00001859 RMS(Int)=  0.00000942
 Iteration  3 RMS(Cart)=  0.00000000 RMS(Int)=  0.00000942
 Variable       Old X    -DE/DX   Delta X   Delta X   Delta X     New X
                                 (Linear)    (Quad)   (Total)
    R1        2.56964  -0.00800   0.00000  -0.00151  -0.00151   2.56813
    R2        2.93026  -0.06775   0.00000  -0.02028  -0.02028   2.90998
    R3        2.02201   0.00565   0.00000   0.00131   0.00131   2.02332
    R4        2.89848  -0.06806   0.00000  -0.01884  -0.01884   2.87965
    R5        2.02201   0.00496   0.00000   0.00115   0.00115   2.02316
    R6        2.53228   0.02207   0.00000   0.00386   0.00385   2.53613
    R7        2.89724  -0.01607   0.00000  -0.00442  -0.00442   2.89283
    R8        2.89995  -0.06934   0.00000  -0.01928  -0.01928   2.88067
    R9        2.91799  -0.01887   0.00000  -0.00584  -0.00585   2.91214
   R10        2.57113  -0.00897   0.00000  -0.00172  -0.00172   2.56942
   R11        2.02201   0.00545   0.00000   0.00126   0.00126   2.02327
   R12        2.02201   0.00536   0.00000   0.00124   0.00124   2.02325
   R13        2.02201   0.01775   0.00000   0.00411   0.00411   2.02612
   R14        3.37777   0.02844   0.00000   0.00752   0.00752   3.38529
   R15        2.02201   0.01955   0.00000   0.00453   0.00453   2.02653
   R16        2.02201   0.01739   0.00000   0.00403   0.00403   2.02603
   R17        2.69524   0.01131   0.00000   0.00308   0.00309   2.69833
   R18        2.02201   0.02284   0.00000   0.00529   0.00529   2.02730
   R19        3.16061   0.02115   0.00000   0.00497   0.00498   3.16560
   R20        3.15584  -0.12082   0.00000  -0.02654  -0.02654   3.12931
    A1        2.09574   0.00383   0.00000   0.00083   0.00083   2.09657
    A2        2.09367   0.00591   0.00000   0.00292   0.00292   2.09659
    A3        2.09374  -0.00974   0.00000  -0.00375  -0.00375   2.08999
    A4        2.06996  -0.00170   0.00000  -0.00018  -0.00017   2.06979
    A5        2.10638   0.00818   0.00000   0.00322   0.00322   2.10960
    A6        2.10673  -0.00650   0.00000  -0.00304  -0.00304   2.10368
    A7        2.10839  -0.00285   0.00000  -0.00083  -0.00083   2.10756
    A8        2.16700  -0.00400   0.00000  -0.00263  -0.00263   2.16436
    A9        2.00739   0.00678   0.00000   0.00341   0.00341   2.01079
   A10        2.09914  -0.00186   0.00000  -0.00029  -0.00029   2.09885
   A11        2.02687   0.00445   0.00000   0.00227   0.00227   2.02915
   A12        2.15693  -0.00257   0.00000  -0.00194  -0.00194   2.15499
   A13        2.07248  -0.00117   0.00000  -0.00012  -0.00012   2.07236
   A14        2.10547  -0.00718   0.00000  -0.00325  -0.00325   2.10222
   A15        2.10513   0.00835   0.00000   0.00338   0.00337   2.10851
   A16        2.09716   0.00339   0.00000   0.00061   0.00062   2.09778
   A17        2.09303  -0.00952   0.00000  -0.00364  -0.00364   2.08939
   A18        2.09296   0.00613   0.00000   0.00303   0.00303   2.09599
   A19        1.93887  -0.00414   0.00000  -0.00129  -0.00128   1.93759
   A20        1.81278   0.00492   0.00000   0.00341   0.00342   1.81620
   A21        1.93798   0.00309   0.00000   0.00070   0.00069   1.93867
   A22        1.96204   0.00293   0.00000  -0.00003  -0.00004   1.96200
   A23        1.89689  -0.00076   0.00000  -0.00094  -0.00094   1.89594
   A24        1.91479  -0.00586   0.00000  -0.00170  -0.00170   1.91309
   A25        1.91379   0.00930   0.00000   0.00388   0.00387   1.91766
   A26        1.96116  -0.01338   0.00000  -0.00445  -0.00446   1.95670
   A27        1.87826   0.00634   0.00000   0.00284   0.00285   1.88111
   A28        1.92725   0.00262   0.00000  -0.00062  -0.00061   1.92664
   A29        1.91752  -0.00407   0.00000  -0.00151  -0.00152   1.91600
   A30        1.86443  -0.00104   0.00000  -0.00018  -0.00018   1.86426
   A31        1.86024   0.02498   0.00000   0.01152   0.01153   1.87178
   A32        1.90254  -0.02054   0.00000  -0.00785  -0.00788   1.89466
   A33        1.87219  -0.00730   0.00000  -0.00471  -0.00473   1.86746
   A34        1.90937   0.00100   0.00000  -0.00187  -0.00192   1.90745
    D1       -0.00692   0.00005   0.00000  -0.00044  -0.00044  -0.00736
    D2        3.11868  -0.00119   0.00000  -0.00059  -0.00059   3.11809
    D3       -3.13986   0.00107   0.00000   0.00007   0.00007  -3.13979
    D4       -0.01425  -0.00016   0.00000  -0.00008  -0.00008  -0.01433
    D5        0.08446   0.00139   0.00000   0.00018   0.00018   0.08464
    D6       -3.06553   0.00160   0.00000   0.00098   0.00098  -3.06455
    D7       -3.06579   0.00045   0.00000  -0.00029  -0.00029  -3.06608
    D8        0.06740   0.00066   0.00000   0.00050   0.00050   0.06791
    D9       -0.16335  -0.00016   0.00000   0.00084   0.00084  -0.16251
   D10        2.94571  -0.00283   0.00000  -0.00125  -0.00125   2.94447
   D11        2.99423   0.00094   0.00000   0.00093   0.00093   2.99516
   D12       -0.17989  -0.00174   0.00000  -0.00116  -0.00116  -0.18105
   D13        0.24758   0.00194   0.00000  -0.00021  -0.00022   0.24737
   D14       -2.87146   0.00102   0.00000  -0.00212  -0.00213  -2.87359
   D15       -2.86431   0.00456   0.00000   0.00180   0.00180  -2.86251
   D16        0.29983   0.00364   0.00000  -0.00010  -0.00011   0.29972
   D17        1.77773   0.00367   0.00000   0.00205   0.00204   1.77977
   D18       -2.39229   0.00795   0.00000   0.00339   0.00337  -2.38892
   D19       -0.33547   0.00535   0.00000   0.00365   0.00364  -0.33182
   D20       -1.39469   0.00098   0.00000   0.00000  -0.00001  -1.39470
   D21        0.71848   0.00527   0.00000   0.00134   0.00132   0.71980
   D22        2.77530   0.00266   0.00000   0.00160   0.00159   2.77689
   D23       -0.16494  -0.00122   0.00000  -0.00026  -0.00026  -0.16520
   D24        2.99266  -0.00082   0.00000  -0.00085  -0.00085   2.99180
   D25        2.95236  -0.00013   0.00000   0.00185   0.00186   2.95421
   D26       -0.17323   0.00027   0.00000   0.00125   0.00126  -0.17197
   D27        2.83370   0.01016   0.00000   0.00925   0.00926   2.84296
   D28       -1.29917   0.01096   0.00000   0.00817   0.00817  -1.29100
   D29        0.74854   0.00604   0.00000   0.00719   0.00719   0.75573
   D30       -0.28452   0.00919   0.00000   0.00725   0.00725  -0.27726
   D31        1.86580   0.00999   0.00000   0.00617   0.00616   1.87196
   D32       -2.36967   0.00507   0.00000   0.00519   0.00518  -2.36449
   D33       -0.00422   0.00097   0.00000   0.00058   0.00058  -0.00364
   D34       -3.13741   0.00084   0.00000  -0.00019  -0.00019  -3.13760
   D35        3.12137   0.00042   0.00000   0.00111   0.00112   3.12249
   D36       -0.01182   0.00028   0.00000   0.00035   0.00035  -0.01147
   D37       -1.01052   0.01247   0.00000   0.00779   0.00776  -1.00276
   D38        1.05520  -0.00150   0.00000  -0.00130  -0.00129   1.05391
   D39        1.08704   0.01209   0.00000   0.00834   0.00832   1.09535
   D40       -3.13043  -0.00188   0.00000  -0.00075  -0.00074  -3.13117
   D41       -3.08333   0.00899   0.00000   0.00593   0.00591  -3.07742
   D42       -1.01762  -0.00498   0.00000  -0.00316  -0.00314  -1.02076
   D43        0.82391  -0.00289   0.00000  -0.00195  -0.00194   0.82198
   D44        2.96666   0.00157   0.00000  -0.00053  -0.00053   2.96613
   D45       -1.23201  -0.00249   0.00000  -0.00280  -0.00280  -1.23481
   D46        0.21145  -0.00906   0.00000  -0.00512  -0.00511   0.20634
   D47       -1.83078   0.01087   0.00000   0.00608   0.00607  -1.82472
         Item               Value     Threshold  Converged?
 Maximum Force            0.120822     0.000015     NO 
 RMS     Force            0.018969     0.000010     NO 
 Maximum Displacement     0.020434     0.000060     NO 
 RMS     Displacement     0.007497     0.000040     NO 
 Predicted change in Energy=-9.587678D-03
 GradGradGradGradGradGradGradGradGradGradGradGradGradGradGradGradGradGrad

                          Input orientation:                          
 ---------------------------------------------------------------------
 Center     Atomic      Atomic             Coordinates (Angstroms)
 Number     Number       Type             X           Y           Z
 ---------------------------------------------------------------------
      1          6           0       -5.641484   -1.714728    0.060926
      2          6           0       -4.381627   -1.780415   -0.444366
      3          6           0       -3.531879   -0.515513   -0.451368
      4          6           0       -4.070564    0.674825   -0.144700
      5          6           0       -5.439496    0.749585    0.521773
      6          6           0       -6.181581   -0.385477    0.620090
      7          1           0       -1.845662   -0.157569   -1.754722
      8          1           0       -6.259310   -2.588988    0.079439
      9          1           0       -3.986442   -2.703191   -0.816542
     10          6           0       -2.031367   -0.493717   -0.753683
     11          6           0       -3.243736    1.916969   -0.529714
     12          1           0       -5.812708    1.682493    0.891540
     13          1           0       -7.147627   -0.357025    1.080798
     14          1           0       -3.868828    2.787973   -0.520880
     15          8           0       -2.119837    2.102503    0.331280
     16         16           0       -1.355579    0.618973    0.476931
     17          8           0       -1.701843   -0.031484    1.959901
     18          1           0       -2.855414    1.758820   -1.517182
     19          1           0       -1.599608   -1.468012   -0.633833
 ---------------------------------------------------------------------
                    Distance matrix (angstroms):
                    1          2          3          4          5
     1  C    0.000000
     2  C    1.358998   0.000000
     3  C    2.480120   1.523843   0.000000
     4  C    2.867060   2.492943   1.342062   0.000000
     5  C    2.515158   2.907476   2.487264   1.524385   0.000000
     6  C    1.539895   2.513714   2.861093   2.483050   1.359678
     7  H    4.486601   3.283562   2.161060   2.869710   4.349828
     8  H    1.070692   2.110416   3.466978   3.936155   3.466097
     9  H    2.118059   1.070608   2.264048   3.445205   3.977954
    10  C    3.897102   2.697219   1.530819   2.427895   3.845508
    11  C    4.391729   3.869462   2.450742   1.541040   2.699958
    12  H    3.501478   3.977986   3.440467   2.263681   1.070668
    13  H    2.269793   3.464523   3.930176   3.469131   2.110641
    14  H    4.873923   4.597715   3.321353   2.155830   2.776535
    15  O    5.200610   4.560085   3.075778   2.463770   3.589821
    16  S    4.897776   3.970242   2.623944   2.785802   4.086252
    17  O    4.686170   4.002562   3.065540   3.246392   4.080237
    18  H    4.724209   4.000805   2.601183   2.129634   3.442873
    19  H    4.108567   2.805909   2.161995   3.307057   4.582347
                    6          7          8          9         10
     6  C    0.000000
     7  H    4.948926   0.000000
     8  H    2.270199   5.362484   0.000000
     9  H    3.500621   3.455909   2.445762   0.000000
    10  C    4.373013   1.072175   4.791634   2.950940   0.000000
    11  C    3.905669   2.785492   5.456043   4.688258   2.707657
    12  H    2.118078   5.111358   4.370871   5.048466   4.662744
    13  H    1.070656   6.015878   2.602592   4.370067   5.436922
    14  H    4.089184   3.780447   5.914938   5.500375   3.768281
    15  O    4.771921   3.087799   6.261690   5.281705   2.815196
    16  S    4.931503   2.413188   5.873295   4.430721   1.791418
    17  O    4.689185   3.719543   5.554050   4.479514   2.772325
    18  H    4.497703   2.179121   5.747968   4.656142   2.517122
    19  H    4.872237   1.741894   4.845428   2.693702   1.072396
                   11         12         13         14         15
    11  C    0.000000
    12  H    2.945261   0.000000
    13  H    4.796370   2.444885   0.000000
    14  H    1.072131   2.644936   4.817355   0.000000
    15  O    1.427894   3.758670   5.647099   2.062768   0.000000
    16  S    2.502652   4.600975   5.904663   3.466497   1.675162
    17  O    3.517398   4.580210   5.525881   4.335831   2.716805
    18  H    1.072799   3.814886   5.445126   1.754645   2.018911
    19  H    3.764585   5.477468   5.912256   4.824471   3.735059
                   16         17         18         19
    16  S    0.000000
    17  O    1.655957   0.000000
    18  H    2.743217   4.077501   0.000000
    19  H    2.376732   2.966736   3.573485   0.000000
 Symmetry turned off by external request.
 Stoichiometry    C8H8O2S
 Framework group  C1[X(C8H8O2S)]
 Deg. of freedom    51
 Full point group                 C1      NOp   1
 Rotational constants (GHZ):           1.8368391           0.7929995           0.6930404
 Standard basis: VSTO-6G (5D, 7F)
    57 basis functions,   348 primitive gaussians,    58 cartesian basis functions
    29 alpha electrons       29 beta electrons
       nuclear repulsion energy       342.9219349604 Hartrees.
 Integral buffers will be    131072 words long.
 Regular integral format.
 Two-electron integral symmetry is turned off.
 Do NDO integrals.
 One-electron integrals computed using PRISM.
 NBasis=    57 RedAO= F EigKep=  0.00D+00  NBF=    57
 NBsUse=    57 1.00D-04 EigRej=  0.00D+00 NBFU=    57
 Initial guess from the checkpoint file:  "C:\Users\al6323\OneDrive - Imperial College London\Desktop\TSR20251115\Exercise 3\DA reaction\product_endo_opt+freq.chk"
 B after Tr=     0.000954   -0.005280    0.000443
         Rot=    1.000000   -0.000247    0.000055    0.000234 Ang=  -0.04 deg.
 Keep J ints in memory in canonical form, NReq=1859402.
 Overlap will be assumed to be unity.
 Requested convergence on RMS density matrix=1.00D-08 within 128 cycles.
 Requested convergence on MAX density matrix=1.00D-06.
 Requested convergence on             energy=1.00D-06.
 No special actions if energy rises.
 SCF Done:  E(RPM6) = -0.862133031717E-03 A.U. after   15 cycles
            NFock= 14  Conv=0.30D-08     -V/T= 1.0000
 Calling FoFJK, ICntrl=      2127 FMM=F ISym2X=0 I1Cent= 0 IOpClX= 0 NMat=1 NMatS=1 NMatT=0.
 -------------------------------------------------------------------
 Center     Atomic                   Forces (Hartrees/Bohr)
 Number     Number              X              Y              Z
 -------------------------------------------------------------------
      1        6          -0.008611842    0.058048830    0.018794569
      2        6           0.022994211    0.051317269    0.010484484
      3        6          -0.006203613   -0.065051248   -0.011412525
      4        6          -0.053118823    0.034948631    0.025712011
      5        6           0.045933721   -0.016389643   -0.032928147
      6        6           0.032052446   -0.044339760   -0.026161696
      7        1           0.005299976    0.003627726   -0.015442087
      8        1          -0.008504162   -0.000924563    0.002997890
      9        1           0.007642707   -0.001397489   -0.002866410
     10        6          -0.047758674   -0.004324535    0.011336280
     11        6          -0.032909700   -0.016444828    0.015304909
     12        1           0.004195639    0.007839698    0.000408462
     13        1          -0.005426289   -0.006874599    0.001681695
     14        1          -0.003549224    0.017198880    0.005382340
     15        8          -0.010730490   -0.007267302   -0.004618913
     16       16           0.028004064   -0.041823529    0.128851843
     17        8           0.018617033    0.043471607   -0.106146194
     18        1           0.004088259    0.004688584   -0.022138375
     19        1           0.007984760   -0.016303729    0.000759866
 -------------------------------------------------------------------
 Cartesian Forces:  Max     0.128851843 RMS     0.032965845

 GradGradGradGradGradGradGradGradGradGradGradGradGradGradGradGradGradGrad
 Berny optimization.
 Using GEDIIS/GDIIS optimizer.
 FormGI is forming the generalized inverse of G from B-inverse, IUseBI=4.
 Internal  Forces:  Max     0.116026235 RMS     0.017862106
 Search for a local minimum.
 Step number   2 out of a maximum of  111
 All quantities printed in internal units (Hartrees-Bohrs-Radians)
 Mixed Optimization -- RFO/linear search
 Update second derivatives using D2CorX and points    1    2
 DE= -9.68D-03 DEPred=-9.59D-03 R= 1.01D+00
 TightC=F SS=  1.41D+00  RLast= 5.59D-02 DXNew= 8.4090D-02 1.6764D-01
 Trust test= 1.01D+00 RLast= 5.59D-02 DXMaxT set to 8.41D-02
 ITU=  1  0
 Use linear search instead of GDIIS.
 Linear search step of   0.100 exceeds DXMaxT=   0.084 but not scaled.
 Quartic linear search produced a step of  2.00000.
 Iteration  1 RMS(Cart)=  0.01499955 RMS(Int)=  0.00008296
 Iteration  2 RMS(Cart)=  0.00007448 RMS(Int)=  0.00005667
 Iteration  3 RMS(Cart)=  0.00000001 RMS(Int)=  0.00005667
 Variable       Old X    -DE/DX   Delta X   Delta X   Delta X     New X
                                 (Linear)    (Quad)   (Total)
    R1        2.56813  -0.00477  -0.00302   0.00000  -0.00302   2.56511
    R2        2.90998  -0.06328  -0.04057   0.00000  -0.04057   2.86941
    R3        2.02332   0.00571   0.00262   0.00000   0.00262   2.02593
    R4        2.87965  -0.06314  -0.03767   0.00000  -0.03767   2.84198
    R5        2.02316   0.00502   0.00230   0.00000   0.00230   2.02545
    R6        2.53613   0.02199   0.00771   0.00000   0.00766   2.54379
    R7        2.89283  -0.01546  -0.00883   0.00000  -0.00884   2.88399
    R8        2.88067  -0.06436  -0.03857   0.00000  -0.03857   2.84210
    R9        2.91214  -0.01772  -0.01169   0.00000  -0.01174   2.90040
   R10        2.56942  -0.00562  -0.00343   0.00000  -0.00343   2.56599
   R11        2.02327   0.00551   0.00253   0.00000   0.00253   2.02580
   R12        2.02325   0.00544   0.00248   0.00000   0.00248   2.02573
   R13        2.02612   0.01647   0.00822   0.00000   0.00822   2.03434
   R14        3.38529   0.02641   0.01505   0.00000   0.01504   3.40033
   R15        2.02653   0.01811   0.00905   0.00000   0.00905   2.03559
   R16        2.02603   0.01609   0.00805   0.00000   0.00805   2.03409
   R17        2.69833   0.00952   0.00617   0.00000   0.00621   2.70454
   R18        2.02730   0.02117   0.01058   0.00000   0.01058   2.03788
   R19        3.16560   0.01924   0.00997   0.00000   0.01003   3.17563
   R20        3.12931  -0.11603  -0.05307   0.00000  -0.05307   3.07623
    A1        2.09657   0.00345   0.00166   0.00000   0.00167   2.09824
    A2        2.09659   0.00539   0.00583   0.00000   0.00583   2.10242
    A3        2.08999  -0.00884  -0.00751   0.00000  -0.00751   2.08248
    A4        2.06979  -0.00147  -0.00035   0.00000  -0.00034   2.06945
    A5        2.10960   0.00737   0.00643   0.00000   0.00643   2.11602
    A6        2.10368  -0.00591  -0.00609   0.00000  -0.00609   2.09759
    A7        2.10756  -0.00261  -0.00166   0.00000  -0.00167   2.10588
    A8        2.16436  -0.00354  -0.00527   0.00000  -0.00527   2.15910
    A9        2.01079   0.00608   0.00681   0.00000   0.00682   2.01761
   A10        2.09885  -0.00170  -0.00058   0.00000  -0.00059   2.09826
   A11        2.02915   0.00383   0.00454   0.00000   0.00455   2.03369
   A12        2.15499  -0.00211  -0.00388   0.00000  -0.00389   2.15110
   A13        2.07236  -0.00097  -0.00023   0.00000  -0.00023   2.07213
   A14        2.10222  -0.00656  -0.00650   0.00000  -0.00650   2.09571
   A15        2.10851   0.00753   0.00675   0.00000   0.00675   2.11525
   A16        2.09778   0.00300   0.00123   0.00000   0.00123   2.09901
   A17        2.08939  -0.00862  -0.00728   0.00000  -0.00728   2.08210
   A18        2.09599   0.00562   0.00606   0.00000   0.00606   2.10205
   A19        1.93759  -0.00364  -0.00257   0.00000  -0.00255   1.93503
   A20        1.81620   0.00484   0.00683   0.00000   0.00689   1.82309
   A21        1.93867   0.00276   0.00138   0.00000   0.00133   1.94001
   A22        1.96200   0.00239  -0.00009   0.00000  -0.00017   1.96182
   A23        1.89594  -0.00074  -0.00189   0.00000  -0.00189   1.89406
   A24        1.91309  -0.00544  -0.00339   0.00000  -0.00335   1.90974
   A25        1.91766   0.00887   0.00775   0.00000   0.00772   1.92539
   A26        1.95670  -0.01210  -0.00892   0.00000  -0.00899   1.94770
   A27        1.88111   0.00604   0.00569   0.00000   0.00572   1.88683
   A28        1.92664   0.00193  -0.00122   0.00000  -0.00117   1.92547
   A29        1.91600  -0.00378  -0.00303   0.00000  -0.00308   1.91292
   A30        1.86426  -0.00118  -0.00035   0.00000  -0.00031   1.86395
   A31        1.87178   0.02346   0.02307   0.00000   0.02317   1.89494
   A32        1.89466  -0.01920  -0.01575   0.00000  -0.01589   1.87877
   A33        1.86746  -0.00658  -0.00947   0.00000  -0.00963   1.85783
   A34        1.90745   0.00081  -0.00383   0.00000  -0.00410   1.90335
    D1       -0.00736   0.00003  -0.00088   0.00000  -0.00088  -0.00824
    D2        3.11809  -0.00106  -0.00118   0.00000  -0.00117   3.11693
    D3       -3.13979   0.00096   0.00014   0.00000   0.00014  -3.13965
    D4       -0.01433  -0.00013  -0.00016   0.00000  -0.00014  -0.01448
    D5        0.08464   0.00122   0.00037   0.00000   0.00036   0.08500
    D6       -3.06455   0.00148   0.00196   0.00000   0.00195  -3.06260
    D7       -3.06608   0.00037  -0.00059   0.00000  -0.00059  -3.06667
    D8        0.06791   0.00063   0.00101   0.00000   0.00101   0.06892
    D9       -0.16251   0.00002   0.00169   0.00000   0.00171  -0.16080
   D10        2.94447  -0.00254  -0.00249   0.00000  -0.00246   2.94201
   D11        2.99516   0.00098   0.00187   0.00000   0.00187   2.99704
   D12       -0.18105  -0.00158  -0.00231   0.00000  -0.00230  -0.18334
   D13        0.24737   0.00160  -0.00044   0.00000  -0.00046   0.24690
   D14       -2.87359   0.00063  -0.00426   0.00000  -0.00434  -2.87793
   D15       -2.86251   0.00412   0.00360   0.00000   0.00360  -2.85891
   D16        0.29972   0.00314  -0.00023   0.00000  -0.00028   0.29944
   D17        1.77977   0.00348   0.00409   0.00000   0.00404   1.78382
   D18       -2.38892   0.00732   0.00674   0.00000   0.00663  -2.38229
   D19       -0.33182   0.00502   0.00729   0.00000   0.00727  -0.32456
   D20       -1.39470   0.00090  -0.00002   0.00000  -0.00007  -1.39477
   D21        0.71980   0.00474   0.00263   0.00000   0.00251   0.72231
   D22        2.77689   0.00244   0.00319   0.00000   0.00315   2.78004
   D23       -0.16520  -0.00102  -0.00051   0.00000  -0.00050  -0.16569
   D24        2.99180  -0.00071  -0.00171   0.00000  -0.00170   2.99010
   D25        2.95421   0.00010   0.00371   0.00000   0.00376   2.95797
   D26       -0.17197   0.00041   0.00252   0.00000   0.00255  -0.16942
   D27        2.84296   0.00995   0.01852   0.00000   0.01859   2.86155
   D28       -1.29100   0.01040   0.01634   0.00000   0.01634  -1.27466
   D29        0.75573   0.00581   0.01438   0.00000   0.01437   0.77010
   D30       -0.27726   0.00893   0.01450   0.00000   0.01453  -0.26273
   D31        1.87196   0.00938   0.01232   0.00000   0.01229   1.88425
   D32       -2.36449   0.00480   0.01036   0.00000   0.01031  -2.35418
   D33       -0.00364   0.00094   0.00116   0.00000   0.00117  -0.00247
   D34       -3.13760   0.00074  -0.00037   0.00000  -0.00039  -3.13798
   D35        3.12249   0.00050   0.00223   0.00000   0.00227   3.12476
   D36       -0.01147   0.00031   0.00070   0.00000   0.00071  -0.01076
   D37       -1.00276   0.01132   0.01552   0.00000   0.01536  -0.98740
   D38        1.05391  -0.00134  -0.00258   0.00000  -0.00253   1.05138
   D39        1.09535   0.01121   0.01663   0.00000   0.01649   1.11185
   D40       -3.13117  -0.00145  -0.00147   0.00000  -0.00139  -3.13256
   D41       -3.07742   0.00808   0.01182   0.00000   0.01167  -3.06575
   D42       -1.02076  -0.00458  -0.00629   0.00000  -0.00621  -1.02697
   D43        0.82198  -0.00261  -0.00387   0.00000  -0.00380   0.81817
   D44        2.96613   0.00170  -0.00106   0.00000  -0.00103   2.96510
   D45       -1.23481  -0.00247  -0.00560   0.00000  -0.00556  -1.24037
   D46        0.20634  -0.00819  -0.01022   0.00000  -0.01012   0.19622
   D47       -1.82472   0.00991   0.01214   0.00000   0.01209  -1.81263
         Item               Value     Threshold  Converged?
 Maximum Force            0.116026     0.000015     NO 
 RMS     Force            0.017862     0.000010     NO 
 Maximum Displacement     0.040951     0.000060     NO 
 RMS     Displacement     0.015011     0.000040     NO 
 Predicted change in Energy=-1.754743D-02
 GradGradGradGradGradGradGradGradGradGradGradGradGradGradGradGradGradGrad

                          Input orientation:                          
 ---------------------------------------------------------------------
 Center     Atomic      Atomic             Coordinates (Angstroms)
 Number     Number       Type             X           Y           Z
 ---------------------------------------------------------------------
      1          6           0       -5.632418   -1.699380    0.063465
      2          6           0       -4.373272   -1.766571   -0.439099
      3          6           0       -3.535686   -0.517544   -0.450186
      4          6           0       -4.079032    0.675990   -0.146418
      5          6           0       -5.430361    0.747572    0.509883
      6          6           0       -6.168292   -0.387888    0.609770
      7          1           0       -1.850467   -0.170188   -1.753236
      8          1           0       -6.255155   -2.571709    0.087756
      9          1           0       -3.970594   -2.688722   -0.808279
     10          6           0       -2.038811   -0.504219   -0.747325
     11          6           0       -3.260742    1.917950   -0.525406
     12          1           0       -5.800515    1.684404    0.876659
     13          1           0       -7.136509   -0.367664    1.069403
     14          1           0       -3.882446    2.796352   -0.502726
     15          8           0       -2.130204    2.086821    0.335783
     16         16           0       -1.345994    0.608137    0.485734
     17          8           0       -1.699750   -0.036125    1.938230
     18          1           0       -2.874598    1.773643   -1.521904
     19          1           0       -1.609746   -1.484840   -0.626420
 ---------------------------------------------------------------------
                    Distance matrix (angstroms):
                    1          2          3          4          5
     1  C    0.000000
     2  C    1.357400   0.000000
     3  C    2.461069   1.503909   0.000000
     4  C    2.845952   2.477568   1.346115   0.000000
     5  C    2.495534   2.887718   2.472254   1.503976   0.000000
     6  C    1.518427   2.494591   2.840938   2.463465   1.357862
     7  H    4.465645   3.261892   2.158370   2.874784   4.333547
     8  H    1.072077   2.113600   3.450288   3.916363   3.446172
     9  H    2.121413   1.071823   2.243075   3.430904   3.959366
    10  C    3.872958   2.671750   1.526141   2.432383   3.827553
    11  C    4.365398   3.849788   2.452119   1.534828   2.673734
    12  H    3.484184   3.959479   3.426156   2.242117   1.072005
    13  H    2.246702   3.444996   3.911207   3.451898   2.113707
    14  H    4.857425   4.589686   3.332403   2.159059   2.760238
    15  O    5.164783   4.525531   3.062000   2.453751   3.565801
    16  S    4.886347   3.957142   2.633981   2.806015   4.086818
    17  O    4.663373   3.974149   3.050731   3.242507   4.070850
    18  H    4.709656   3.993946   2.614413   2.132479   3.422412
    19  H    4.087036   2.784159   2.162398   3.316167   4.568582
                    6          7          8          9         10
     6  C    0.000000
     7  H    4.926946   0.000000
     8  H    2.247024   5.343953   0.000000
     9  H    3.483471   3.425040   2.456784   0.000000
    10  C    4.348316   1.076526   4.769637   2.916771   0.000000
    11  C    3.880639   2.802991   5.431346   4.669618   2.721997
    12  H    2.121529   5.094972   4.352421   5.031089   4.645193
    13  H    1.071969   5.995709   2.568702   4.351553   5.413472
    14  H    4.074570   3.806976   5.898686   5.494285   3.788481
    15  O    4.743986   3.088096   6.227250   5.244208   2.809798
    16  S    4.925648   2.423482   5.862566   4.408205   1.799379
    17  O    4.675084   3.696973   5.532193   4.442557   2.747049
    18  H    4.479360   2.209261   5.735962   4.650072   2.546992
    19  H    4.848897   1.748133   4.824019   2.656315   1.077187
                   11         12         13         14         15
    11  C    0.000000
    12  H    2.910460   0.000000
    13  H    4.773785   2.456219   0.000000
    14  H    1.076392   2.611153   4.803281   0.000000
    15  O    1.431181   3.731712   5.623681   2.068062   0.000000
    16  S    2.530666   4.599341   5.901096   3.492696   1.680469
    17  O    3.510642   4.572028   5.515717   4.329591   2.694445
    18  H    1.078397   3.784450   5.428071   1.760800   2.025636
    19  H    3.783513   5.464970   5.888039   4.848615   3.735435
                   16         17         18         19
    16  S    0.000000
    17  O    1.627871   0.000000
    18  H    2.779504   4.077752   0.000000
    19  H    2.384744   2.946914   3.608247   0.000000
 Symmetry turned off by external request.
 Stoichiometry    C8H8O2S
 Framework group  C1[X(C8H8O2S)]
 Deg. of freedom    51
 Full point group                 C1      NOp   1
 Rotational constants (GHZ):           1.8496026           0.7997397           0.6964893
 Standard basis: VSTO-6G (5D, 7F)
    57 basis functions,   348 primitive gaussians,    58 cartesian basis functions
    29 alpha electrons       29 beta electrons
       nuclear repulsion energy       343.6860485798 Hartrees.
 Integral buffers will be    131072 words long.
 Regular integral format.
 Two-electron integral symmetry is turned off.
 Do NDO integrals.
 One-electron integrals computed using PRISM.
 NBasis=    57 RedAO= F EigKep=  0.00D+00  NBF=    57
 NBsUse=    57 1.00D-04 EigRej=  0.00D+00 NBFU=    57
 Initial guess from the checkpoint file:  "C:\Users\al6323\OneDrive - Imperial College London\Desktop\TSR20251115\Exercise 3\DA reaction\product_endo_opt+freq.chk"
 B after Tr=     0.001925   -0.010550    0.000783
         Rot=    1.000000   -0.000487    0.000106    0.000468 Ang=  -0.08 deg.
 Keep J ints in memory in canonical form, NReq=1859402.
 Overlap will be assumed to be unity.
 Requested convergence on RMS density matrix=1.00D-08 within 128 cycles.
 Requested convergence on MAX density matrix=1.00D-06.
 Requested convergence on             energy=1.00D-06.
 No special actions if energy rises.
 SCF Done:  E(RPM6) = -0.183488605948E-01 A.U. after   15 cycles
            NFock= 14  Conv=0.71D-08     -V/T= 0.9998
 Calling FoFJK, ICntrl=      2127 FMM=F ISym2X=0 I1Cent= 0 IOpClX= 0 NMat=1 NMatS=1 NMatT=0.
 -------------------------------------------------------------------
 Center     Atomic                   Forces (Hartrees/Bohr)
 Number     Number              X              Y              Z
 -------------------------------------------------------------------
      1        6          -0.012719242    0.050189656    0.017997704
      2        6           0.024668434    0.043637617    0.007504514
      3        6          -0.001886164   -0.058264417   -0.010728103
      4        6          -0.046246261    0.033349871    0.022215111
      5        6           0.041995433   -0.009578423   -0.029366236
      6        6           0.024419020   -0.042925188   -0.021802026
      7        1           0.005142447    0.003103558   -0.012937020
      8        1          -0.007539666   -0.001786496    0.002427014
      9        1           0.006535093   -0.002165842   -0.002521908
     10        6          -0.042255967   -0.002969646    0.009373790
     11        6          -0.026845848   -0.015716323    0.014090834
     12        1           0.002870016    0.007335009    0.000718105
     13        1          -0.005448797   -0.005490283    0.001929944
     14        1          -0.001879703    0.015079051    0.005778143
     15        8          -0.009952535   -0.006924576   -0.006004945
     16       16           0.020517025   -0.037808319    0.115289625
     17        8           0.018498031    0.039951661   -0.095701703
     18        1           0.003346725    0.004728752   -0.018721627
     19        1           0.006781958   -0.013745661    0.000458783
 -------------------------------------------------------------------
 Cartesian Forces:  Max     0.115289625 RMS     0.029399580

 GradGradGradGradGradGradGradGradGradGradGradGradGradGradGradGradGradGrad
 Berny optimization.
 Using GEDIIS/GDIIS optimizer.
 FormGI is forming the generalized inverse of G from B-inverse, IUseBI=4.
 Internal  Forces:  Max     0.105223048 RMS     0.015557811
 Search for a local minimum.
 Step number   3 out of a maximum of  111
 All quantities printed in internal units (Hartrees-Bohrs-Radians)
 Mixed Optimization -- RFO/linear search
 Update second derivatives using D2CorX and points    1    2    3
 ITU=  0  1  0
 Use linear search instead of GDIIS.
 Linear search step of   0.200 exceeds DXMaxT=   0.084 scaled by   0.840
 Quartic linear search produced a step of  1.67979.
 Iteration  1 RMS(Cart)=  0.02523516 RMS(Int)=  0.00024247
 Iteration  2 RMS(Cart)=  0.00021103 RMS(Int)=  0.00017072
 Iteration  3 RMS(Cart)=  0.00000005 RMS(Int)=  0.00017072
 Variable       Old X    -DE/DX   Delta X   Delta X   Delta X     New X
                                 (Linear)    (Quad)   (Total)
    R1        2.56511   0.00207  -0.00507   0.00000  -0.00507   2.56005
    R2        2.86941  -0.05355  -0.06815   0.00000  -0.06815   2.80126
    R3        2.02593   0.00589   0.00440   0.00000   0.00440   2.03033
    R4        2.84198  -0.05255  -0.06328   0.00000  -0.06327   2.77870
    R5        2.02545   0.00519   0.00386   0.00000   0.00386   2.02931
    R6        2.54379   0.02234   0.01286   0.00000   0.01272   2.55650
    R7        2.88399  -0.01404  -0.01485   0.00000  -0.01487   2.86912
    R8        2.84210  -0.05359  -0.06479   0.00000  -0.06479   2.77732
    R9        2.90040  -0.01520  -0.01972   0.00000  -0.01987   2.88053
   R10        2.56599   0.00149  -0.00577   0.00000  -0.00577   2.56022
   R11        2.02580   0.00566   0.00424   0.00000   0.00424   2.03004
   R12        2.02573   0.00565   0.00417   0.00000   0.00417   2.02989
   R13        2.03434   0.01395   0.01381   0.00000   0.01381   2.04815
   R14        3.40033   0.02254   0.02527   0.00000   0.02525   3.42559
   R15        2.03559   0.01527   0.01521   0.00000   0.01521   2.05080
   R16        2.03409   0.01351   0.01353   0.00000   0.01353   2.04761
   R17        2.70454   0.00605   0.01043   0.00000   0.01055   2.71509
   R18        2.03788   0.01787   0.01777   0.00000   0.01777   2.05565
   R19        3.17563   0.01558   0.01685   0.00000   0.01704   3.19267
   R20        3.07623  -0.10522  -0.08915   0.00000  -0.08915   2.98708
    A1        2.09824   0.00268   0.00281   0.00000   0.00282   2.10107
    A2        2.10242   0.00431   0.00980   0.00000   0.00979   2.11221
    A3        2.08248  -0.00700  -0.01261   0.00000  -0.01263   2.06985
    A4        2.06945  -0.00099  -0.00057   0.00000  -0.00054   2.06892
    A5        2.11602   0.00571   0.01080   0.00000   0.01078   2.12681
    A6        2.09759  -0.00474  -0.01023   0.00000  -0.01025   2.08734
    A7        2.10588  -0.00214  -0.00281   0.00000  -0.00285   2.10303
    A8        2.15910  -0.00259  -0.00885   0.00000  -0.00885   2.15025
    A9        2.01761   0.00466   0.01145   0.00000   0.01145   2.02906
   A10        2.09826  -0.00140  -0.00099   0.00000  -0.00102   2.09724
   A11        2.03369   0.00255   0.00764   0.00000   0.00766   2.04135
   A12        2.15110  -0.00113  -0.00654   0.00000  -0.00655   2.14454
   A13        2.07213  -0.00056  -0.00039   0.00000  -0.00037   2.07176
   A14        2.09571  -0.00530  -0.01092   0.00000  -0.01093   2.08478
   A15        2.11525   0.00585   0.01133   0.00000   0.01133   2.12658
   A16        2.09901   0.00223   0.00207   0.00000   0.00208   2.10110
   A17        2.08210  -0.00678  -0.01224   0.00000  -0.01224   2.06986
   A18        2.10205   0.00456   0.01018   0.00000   0.01017   2.11222
   A19        1.93503  -0.00265  -0.00429   0.00000  -0.00423   1.93081
   A20        1.82309   0.00463   0.01157   0.00000   0.01172   1.83480
   A21        1.94001   0.00213   0.00224   0.00000   0.00209   1.94210
   A22        1.96182   0.00134  -0.00029   0.00000  -0.00055   1.96128
   A23        1.89406  -0.00071  -0.00317   0.00000  -0.00317   1.89089
   A24        1.90974  -0.00460  -0.00563   0.00000  -0.00551   1.90423
   A25        1.92539   0.00805   0.01297   0.00000   0.01290   1.93829
   A26        1.94770  -0.00956  -0.01511   0.00000  -0.01532   1.93238
   A27        1.88683   0.00543   0.00961   0.00000   0.00969   1.89651
   A28        1.92547   0.00057  -0.00197   0.00000  -0.00182   1.92365
   A29        1.91292  -0.00322  -0.00518   0.00000  -0.00533   1.90759
   A30        1.86395  -0.00148  -0.00052   0.00000  -0.00039   1.86356
   A31        1.89494   0.02045   0.03891   0.00000   0.03920   1.93415
   A32        1.87877  -0.01645  -0.02669   0.00000  -0.02707   1.85170
   A33        1.85783  -0.00500  -0.01617   0.00000  -0.01665   1.84118
   A34        1.90335   0.00052  -0.00689   0.00000  -0.00770   1.89564
    D1       -0.00824  -0.00002  -0.00148   0.00000  -0.00149  -0.00974
    D2        3.11693  -0.00084  -0.00196   0.00000  -0.00193   3.11500
    D3       -3.13965   0.00073   0.00024   0.00000   0.00023  -3.13942
    D4       -0.01448  -0.00008  -0.00024   0.00000  -0.00021  -0.01469
    D5        0.08500   0.00089   0.00060   0.00000   0.00057   0.08557
    D6       -3.06260   0.00125   0.00328   0.00000   0.00326  -3.05934
    D7       -3.06667   0.00021  -0.00098   0.00000  -0.00097  -3.06764
    D8        0.06892   0.00057   0.00170   0.00000   0.00171   0.07063
    D9       -0.16080   0.00037   0.00287   0.00000   0.00294  -0.15786
   D10        2.94201  -0.00197  -0.00413   0.00000  -0.00403   2.93798
   D11        2.99704   0.00107   0.00315   0.00000   0.00317   3.00020
   D12       -0.18334  -0.00127  -0.00386   0.00000  -0.00381  -0.18715
   D13        0.24690   0.00094  -0.00078   0.00000  -0.00086   0.24605
   D14       -2.87793  -0.00013  -0.00729   0.00000  -0.00753  -2.88546
   D15       -2.85891   0.00324   0.00605   0.00000   0.00606  -2.85285
   D16        0.29944   0.00217  -0.00046   0.00000  -0.00062   0.29882
   D17        1.78382   0.00309   0.00679   0.00000   0.00667   1.79049
   D18       -2.38229   0.00607   0.01114   0.00000   0.01082  -2.37147
   D19       -0.32456   0.00435   0.01221   0.00000   0.01213  -0.31242
   D20       -1.39477   0.00073  -0.00012   0.00000  -0.00030  -1.39507
   D21        0.72231   0.00371   0.00422   0.00000   0.00386   0.72616
   D22        2.78004   0.00199   0.00529   0.00000   0.00517   2.78521
   D23       -0.16569  -0.00062  -0.00084   0.00000  -0.00079  -0.16648
   D24        2.99010  -0.00051  -0.00286   0.00000  -0.00283   2.98727
   D25        2.95797   0.00056   0.00631   0.00000   0.00644   2.96441
   D26       -0.16942   0.00067   0.00429   0.00000   0.00439  -0.16502
   D27        2.86155   0.00954   0.03122   0.00000   0.03143   2.89297
   D28       -1.27466   0.00932   0.02745   0.00000   0.02746  -1.24719
   D29        0.77010   0.00539   0.02413   0.00000   0.02410   0.79420
   D30       -0.26273   0.00844   0.02441   0.00000   0.02449  -0.23824
   D31        1.88425   0.00822   0.02064   0.00000   0.02053   1.90478
   D32       -2.35418   0.00429   0.01732   0.00000   0.01717  -2.33701
   D33       -0.00247   0.00087   0.00197   0.00000   0.00199  -0.00048
   D34       -3.13798   0.00055  -0.00065   0.00000  -0.00068  -3.13867
   D35        3.12476   0.00066   0.00381   0.00000   0.00390   3.12865
   D36       -0.01076   0.00034   0.00119   0.00000   0.00122  -0.00954
   D37       -0.98740   0.00901   0.02580   0.00000   0.02530  -0.96210
   D38        1.05138  -0.00100  -0.00425   0.00000  -0.00407   1.04731
   D39        1.11185   0.00944   0.02771   0.00000   0.02728   1.13912
   D40       -3.13256  -0.00058  -0.00234   0.00000  -0.00209  -3.13465
   D41       -3.06575   0.00625   0.01961   0.00000   0.01917  -3.04658
   D42       -1.02697  -0.00376  -0.01043   0.00000  -0.01020  -1.03717
   D43        0.81817  -0.00209  -0.00639   0.00000  -0.00620   0.81197
   D44        2.96510   0.00195  -0.00173   0.00000  -0.00164   2.96347
   D45       -1.24037  -0.00248  -0.00934   0.00000  -0.00924  -1.24961
   D46        0.19622  -0.00644  -0.01701   0.00000  -0.01671   0.17951
   D47       -1.81263   0.00790   0.02031   0.00000   0.02015  -1.79248
         Item               Value     Threshold  Converged?
 Maximum Force            0.105223     0.000015     NO 
 RMS     Force            0.015558     0.000010     NO 
 Maximum Displacement     0.069013     0.000060     NO 
 RMS     Displacement     0.025266     0.000040     NO 
 Predicted change in Energy=-2.355936D-02
 GradGradGradGradGradGradGradGradGradGradGradGradGradGradGradGradGradGrad

                          Input orientation:                          
 ---------------------------------------------------------------------
 Center     Atomic      Atomic             Coordinates (Angstroms)
 Number     Number       Type             X           Y           Z
 ---------------------------------------------------------------------
      1          6           0       -5.617286   -1.673523    0.067537
      2          6           0       -4.359309   -1.743215   -0.430356
      3          6           0       -3.542073   -0.520936   -0.448135
      4          6           0       -4.093280    0.677850   -0.149360
      5          6           0       -5.415015    0.744165    0.489869
      6          6           0       -6.145928   -0.391950    0.592425
      7          1           0       -1.858509   -0.191366   -1.750534
      8          1           0       -6.248258   -2.542466    0.101487
      9          1           0       -3.944039   -2.664201   -0.794391
     10          6           0       -2.051428   -0.521668   -0.736445
     11          6           0       -3.289356    1.919315   -0.518137
     12          1           0       -5.780054    1.687543    0.851528
     13          1           0       -7.117629   -0.385631    1.050253
     14          1           0       -3.905073    2.809732   -0.471954
     15          8           0       -2.147749    2.059873    0.342829
     16         16           0       -1.329867    0.589967    0.500345
     17          8           0       -1.695646   -0.043255    1.901710
     18          1           0       -2.906986    1.798716   -1.529355
     19          1           0       -1.627106   -1.512931   -0.613632
 ---------------------------------------------------------------------
                    Distance matrix (angstroms):
                    1          2          3          4          5
     1  C    0.000000
     2  C    1.354718   0.000000
     3  C    2.429174   1.470427   0.000000
     4  C    2.810444   2.451793   1.352843   0.000000
     5  C    2.462619   2.854538   2.447089   1.469692   0.000000
     6  C    1.482362   2.462520   2.807038   2.430655   1.354809
     7  H    4.430641   3.225695   2.153891   2.883313   4.306200
     8  H    1.074403   2.118912   3.422296   3.882949   3.412782
     9  H    2.126998   1.073865   2.207952   3.406999   3.928110
    10  C    3.832559   2.629104   1.518271   2.439810   3.797354
    11  C    4.320967   3.816626   2.454301   1.524311   2.629730
    12  H    3.455126   3.928338   3.402215   2.206006   1.074250
    13  H    2.208036   3.412267   3.879185   3.422974   2.118812
    14  H    4.829316   4.575738   3.350475   2.164349   2.733422
    15  O    5.104088   4.466798   3.038147   2.436663   3.525299
    16  S    4.867512   3.935412   2.650958   2.840122   4.088071
    17  O    4.626146   3.927276   3.026424   3.236592   4.055493
    18  H    4.685320   3.982752   2.636883   2.137291   3.388148
    19  H    4.051089   2.748009   2.162994   3.331229   4.545377
                    6          7          8          9         10
     6  C    0.000000
     7  H    4.889954   0.000000
     8  H    2.208215   5.312960   0.000000
     9  H    3.454663   3.373211   2.475246   0.000000
    10  C    4.306699   1.083833   4.732773   2.859332   0.000000
    11  C    3.838658   2.832155   5.389483   4.638270   2.745637
    12  H    2.127273   5.067498   4.321430   5.001767   4.615726
    13  H    1.074174   5.961584   2.511553   4.320447   5.373750
    14  H    4.050321   3.850945   5.870722   5.483559   3.821541
    15  O    4.696718   3.087702   6.168788   5.180424   2.799725
    16  S    4.916003   2.440574   5.844810   4.370337   1.812742
    17  O    4.651970   3.658873   5.496648   4.381049   2.704685
    18  H    4.448787   2.260232   5.715733   4.640395   2.597088
    19  H    4.809462   1.758587   4.788150   2.593506   1.085235
                   11         12         13         14         15
    11  C    0.000000
    12  H    2.851890   0.000000
    13  H    4.735852   2.475207   0.000000
    14  H    1.083550   2.554695   4.779955   0.000000
    15  O    1.436762   3.686603   5.583963   2.077100   0.000000
    16  S    2.577609   4.596973   5.895115   3.536157   1.689487
    17  O    3.499607   4.558610   5.499099   4.319187   2.656624
    18  H    1.087801   3.733025   5.399561   1.770996   2.037085
    19  H    3.814775   5.443960   5.846808   4.888212   3.735079
                   16         17         18         19
    16  S    0.000000
    17  O    1.580693   0.000000
    18  H    2.840433   4.078284   0.000000
    19  H    2.398224   2.914034   3.666558   0.000000
 Symmetry turned off by external request.
 Stoichiometry    C8H8O2S
 Framework group  C1[X(C8H8O2S)]
 Deg. of freedom    51
 Full point group                 C1      NOp   1
 Rotational constants (GHZ):           1.8716747           0.8110627           0.7022442
 Standard basis: VSTO-6G (5D, 7F)
    57 basis functions,   348 primitive gaussians,    58 cartesian basis functions
    29 alpha electrons       29 beta electrons
       nuclear repulsion energy       345.0091739988 Hartrees.
 Integral buffers will be    131072 words long.
 Regular integral format.
 Two-electron integral symmetry is turned off.
 Do NDO integrals.
 One-electron integrals computed using PRISM.
 NBasis=    57 RedAO= F EigKep=  0.00D+00  NBF=    57
 NBsUse=    57 1.00D-04 EigRej=  0.00D+00 NBFU=    57
 Initial guess from the checkpoint file:  "C:\Users\al6323\OneDrive - Imperial College London\Desktop\TSR20251115\Exercise 3\DA reaction\product_endo_opt+freq.chk"
 B after Tr=     0.003275   -0.017685    0.001013
         Rot=    0.999999   -0.000796    0.000165    0.000783 Ang=  -0.13 deg.
 Keep J ints in memory in canonical form, NReq=1859402.
 Overlap will be assumed to be unity.
 Requested convergence on RMS density matrix=1.00D-08 within 128 cycles.
 Requested convergence on MAX density matrix=1.00D-06.
 Requested convergence on             energy=1.00D-06.
 No special actions if energy rises.
 SCF Done:  E(RPM6) = -0.415648577323E-01 A.U. after   16 cycles
[...]
 1055,-0.2692616,-0.0449815,0.1092038,-0.6884673,-0.1447269,0.0207378,-
 0.1165455,-0.8036752,0.5459394,0.1741148,-0.1328175,0.2030175,-0.17300
 96,0.0985235,-0.3175533,0.1017423,-0.1212159,0.1363075,-0.0864131,-0.0
 015203,-0.096229,0.2261681,0.0196929,-0.0074287,0.0217161,0.1487835,0.
 3232679,-0.0016402,-0.0233057,-0.0198807,0.0822054,-0.0023592,-0.03256
 21,-0.0055612,0.1595777,0.0299636,-0.0301447,0.0140449,-0.0138916,0.14
 15995,0.0271772,0.0239339,0.0936295,0.1678363,-1.0640591,0.2642348,-0.
 1161695,-0.0051258,-0.6450183,0.0764649,0.0737898,0.0118488,-0.5638716
 ,1.6410697,-0.0079022,0.090875,0.0566254,1.3800742,-0.0900337,0.986478
 6,0.1262988,1.5825166,-0.7672361,-0.0412782,0.1828381,-0.0508825,-0.61
 28013,0.0520423,-0.7501398,-0.1099343,-0.9468009,0.0114409,0.0039139,0
 .021416,-0.0382263,0.2094045,-0.0465208,0.0811021,-0.0911713,0.1769468
 ,0.1844766,-0.0628336,-0.011845,-0.0463387,0.2889505,0.0177116,-0.0336
 469,-0.0631673,0.1904355|Polar=116.5111701,8.1762076,105.9950899,-0.82
 50922,3.3535895,50.2842424|HyperPolar=-122.5745649,3.8598932,112.80148
 87,-39.4332518,61.5283917,-6.9504129,31.3714311,-6.4870204,-4.2551196,
 -115.0733839|PG=C01 [X(C8H8O2S1)]|NImag=0||0.63749164,-0.01321145,0.62
 140596,-0.08853262,0.03493836,0.15955810,-0.32412112,-0.05191292,0.042
 26153,0.65170782,0.07821343,-0.09683476,-0.01613833,0.01240591,0.59633
 088,0.05158788,0.00683251,-0.07265420,-0.08930796,0.02836559,0.1575005
 9,-0.05640270,-0.01963170,0.00958829,-0.15007594,-0.15403098,0.0037287
 1,0.66543146,-0.12685412,0.06418558,0.02669527,-0.03184209,-0.23372398
 ,-0.00558942,-0.01339736,0.65113499,0.00214653,0.00747100,0.00477557,0
 .01204701,0.01544481,-0.06601895,-0.09543785,0.03707522,0.18404837,-0.
 07999480,0.05053373,0.01704695,0.09594294,0.03779525,-0.01288812,-0.12
 711656,0.01913141,0.01265008,0.63905414,0.04782927,-0.04036665,-0.0111
 7128,-0.06543789,-0.08885740,0.00507757,0.14199493,-0.26258625,-0.0389
 9493,0.00809787,0.68249129,0.01701282,-0.01138452,-0.00675722,-0.02045
 208,-0.01334632,0.00748419,0.02173382,-0.01705293,-0.06899386,-0.08284
 974,0.04096811,0.17808262,0.09774919,-0.06779806,-0.02088764,-0.093746
 95,-0.04131017,0.01291924,-0.02954383,0.13941048,0.01560452,-0.2911067
 7,-0.04421030,0.03739515,0.62262252,0.03996006,-0.09390011,-0.01390268
 ,-0.04322135,-0.02976718,0.00545454,0.03364425,0.04223380,-0.00344657,
 0.07634434,-0.09180981,-0.01549123,0.04089951,0.63035124,-0.01384875,0
 .00519822,0.00911785,0.01346166,0.00575297,-0.00495532,0.00809077,-0.0
 2234608,0.00161748,0.04526112,0.00597870,-0.07199858,-0.08170671,0.028
 22805,0.15775330,-0.13483302,0.14947209,0.02264000,-0.03083050,0.03625
 512,0.00896187,-0.00698313,-0.00844610,0.00003369,-0.05447154,-0.02217
 244,0.00879432,-0.17049545,-0.17606459,0.00632753,0.60335331,0.0176980
 9,-0.27174467,-0.01722268,0.14369925,0.04096028,-0.02265166,-0.0100663
 3,-0.11683034,-0.00593673,-0.12853091,0.06072544,0.02659395,-0.0463003
 9,-0.25695126,-0.00615694,0.01510277,0.65620888,0.01344301,-0.04036888
 ,-0.07048005,0.01657973,-0.00408150,0.00332961,-0.00006451,-0.00646392
 ,-0.00371075,0.00158776,0.00782308,0.00567501,0.01548861,0.01718424,-0
 .06564807,-0.08045843,0.03325454,0.15673286,0.00014862,-0.00001606,-0.
 00069740,-0.00136549,-0.00028914,0.00010074,-0.01642674,0.00437191,0.0
 2921559,-0.00080875,0.00005343,0.00024005,-0.00030915,-0.00003750,-0.0
 0083643,-0.00003673,0.00018579,-0.00001425,0.04878482,0.00030646,-0.00
 013792,0.00003633,-0.00054468,-0.00048715,-0.00023151,0.00461525,0.004
 40423,-0.00457076,0.00047715,-0.00019770,0.00012747,-0.00020002,-0.000
 18297,0.00004471,-0.00010342,0.00016232,0.00003013,-0.00131282,0.03797
 223,0.00004071,-0.00014750,0.00014431,-0.00013353,-0.00005252,-0.00030
 723,0.01951090,-0.00293747,-0.01378513,-0.00039701,0.00010259,0.000003
 14,0.00009974,0.00011946,0.00009622,-0.00013890,-0.00002933,-0.0000178
 7,-0.03298910,0.02625026,0.25293101,-0.09146425,-0.08537585,0.00307483
 ,-0.03283162,-0.02458510,0.00511906,-0.00272406,0.00087185,0.00157752,
 0.00033490,-0.00001876,-0.00005327,-0.00061277,0.00120122,0.00112824,0
 .00697999,0.00615240,0.00016340,-0.00000959,0.00002099,0.00001206,0.12
 077332,-0.08522453,-0.16193435,0.00710700,-0.01006274,-0.00055050,0.00
 130993,-0.00017661,0.00013456,-0.00029715,0.00027858,0.00025208,-0.000
 09345,0.00145073,-0.00230603,-0.00076502,-0.00838267,-0.04018066,-0.00
 163057,-0.00006013,0.00003043,0.00007041,0.10133465,0.20437176,0.00304
 603,0.00712593,-0.04201609,0.00613987,0.00396504,0.00470498,0.00148015
 ,-0.00060683,0.00541762,-0.00003003,0.00003126,0.00024459,0.00113348,-
 0.00071693,0.00494079,-0.00079325,-0.00421331,0.00558545,0.00007721,0.
 00001457,0.00003524,-0.01041992,-0.00581862,0.02506508,-0.02715455,0.0
 2808527,0.00767577,-0.06657793,0.06986738,0.00896171,0.00691024,-0.013
 99918,-0.00104797,-0.00115040,-0.00115830,0.00100691,0.00034777,-0.000
 22008,-0.00004687,-0.00295163,-0.00038044,0.00147129,-0.00003253,-0.00
 038053,0.00005570,-0.00076966,0.00027572,-0.00008334,0.09342384,0.0143
 9186,-0.00599220,-0.00336708,0.06986384,-0.18358033,-0.02162360,-0.000
 30569,-0.03910910,-0.00290607,-0.00152121,-0.00210677,-0.00023005,-0.0
 0042658,0.00047288,0.00007312,0.00007101,0.00048008,-0.00031730,-0.000
 13993,0.00007309,0.00015607,-0.00003657,0.00091162,0.00015714,-0.08127
 919,0.23061037,0.00673873,-0.00574131,0.00407041,0.00900775,-0.0216059
 1,-0.04438523,-0.00025099,-0.00065426,0.00594948,0.00102017,-0.0002636
 3,0.00493770,-0.00006569,0.00007115,0.00008624,0.00151896,-0.00029599,
 0.00528080,0.00037672,0.00016712,0.00008469,-0.00010603,0.00010400,-0.
 00131956,-0.01766003,0.02812322,0.02808274,0.00063048,-0.00289925,0.00
 055491,-0.04337952,-0.01693166,0.00866841,-0.23605711,0.02135326,0.034
 80418,-0.02856536,0.01770377,0.00675282,0.00096479,0.00229678,0.001391
 96,-0.00080728,0.00043935,0.00017591,-0.03418979,0.00363918,0.02353902
 ,-0.00028798,0.00049251,-0.00002522,-0.00120678,-0.00021541,-0.0000884
 8,0.46188188,-0.00105376,-0.00241435,-0.00027851,-0.02564839,0.0003388
 4,0.00479074,0.02550674,-0.05604638,-0.00281933,0.02816360,-0.00813188
 ,-0.00694733,-0.00023945,-0.00231304,-0.00066665,0.00037250,0.00114352
 ,0.00007495,0.00234202,-0.03289310,-0.01573768,-0.00048336,0.00005389,
 0.00008696,-0.00033131,-0.00138890,0.00002730,-0.03590907,0.36781564,0
 .00040260,-0.00017414,0.00492863,0.00765086,0.00336436,0.00553835,0.03
 568545,-0.00218642,-0.06727972,0.00766663,-0.00489272,0.00288983,0.000
 42960,-0.00063227,0.00536742,0.00048799,0.00001973,0.00011337,0.022195
 35,-0.01854594,-0.20709129,-0.00009840,-0.00003402,-0.00047636,0.00004
 002,0.00000878,-0.00198437,-0.02777508,-0.01705989,0.37979997,0.001259
 60,-0.00013307,-0.00015265,-0.00208697,0.00140694,0.00120513,0.0115971
 0,0.00071630,-0.00117705,-0.08855634,-0.07201926,-0.00234389,-0.035465
 63,-0.02674029,0.00492832,-0.00207726,0.00211956,0.00140824,0.00017619
 ,0.00033811,0.00019931,-0.00027521,-0.00034210,-0.00011634,0.00039845,
 0.00004546,-0.00017940,-0.00329830,-0.00361143,0.00134281,0.45149833,0
 .00016445,-0.00050322,-0.00006428,0.00140686,-0.00099165,-0.00085057,-
 0.00666353,-0.04343996,-0.00280755,-0.06540326,-0.18726117,-0.00236228
 ,-0.02193304,-0.00529613,0.00303595,0.00121139,0.00161834,-0.00029228,
 0.00022354,-0.00017696,0.00007540,0.00000411,0.00001490,0.00006265,-0.
 00019461,-0.00036569,0.00005547,-0.00296427,-0.00184058,-0.00159831,0.
 01724736,0.45593982,-0.00026196,-0.00024070,0.00006218,0.00185668,-0.0
 0063166,0.00527669,-0.00281039,-0.00341450,0.00480957,-0.00238131,0.00
 032825,-0.05992557,0.00469722,0.00327261,0.00450987,0.00146180,-0.0004
 3356,0.00454730,-0.00006606,-0.00027726,-0.00035101,-0.00003458,0.0002
 0635,-0.00085123,-0.00020510,0.00002094,-0.00035211,0.00377860,0.00101
 496,-0.00153225,-0.01782983,-0.01193933,0.39671458,-0.00099934,-0.0015
 2774,0.00107351,0.00027795,-0.00011708,-0.00005447,-0.00273025,-0.0006
 4179,0.00140945,-0.02696702,0.02730151,0.00775173,-0.06800081,0.070914
 99,0.00985748,0.00638407,-0.01292985,-0.00105571,-0.00001849,-0.000010
 16,0.00000579,0.00020629,-0.00019571,-0.00011064,-0.00006536,0.0001030
 8,-0.00012537,-0.00026071,0.00048030,-0.00007385,-0.00303254,-0.000067
 15,0.00035010,0.09518042,-0.00187339,-0.00193113,-0.00022053,-0.000247
 54,0.00061133,0.00012405,0.00048621,-0.00023069,-0.00054666,0.01313638
 ,-0.00419973,-0.00303923,0.07065275,-0.18105059,-0.02277375,0.00111148
 ,-0.04064222,-0.00355109,0.00005208,0.00000253,-0.00004621,0.00012805,
 -0.00039944,-0.00001601,0.00010256,-0.00019641,0.00002766,-0.00053694,
 -0.00007513,0.00006814,-0.00000379,0.00038286,0.00013934,-0.08201083,0
 .22785576,0.00105471,-0.00026345,0.00536322,-0.00009082,0.00003977,0.0
 0011147,0.00142859,-0.00026065,0.00500708,0.00692666,-0.00558026,0.004
 17879,0.00972869,-0.02282450,-0.04528927,0.00000170,-0.00102274,0.0057
 7223,0.00007508,-0.00003417,0.00002318,-0.00009007,0.00002610,-0.00034
 163,-0.00012817,0.00002414,-0.00079299,-0.00008445,-0.00003761,-0.0004
 6745,0.00016334,0.00015257,-0.00140830,-0.01881652,0.02948677,0.028821
 56,-0.02219219,0.01514500,0.00590214,0.00006178,0.00114626,0.00099964,
 -0.00004060,0.00028312,0.00011461,-0.00020276,-0.00189921,0.00087498,-
 0.02945556,-0.01310506,0.00518602,-0.21306828,0.01238693,0.03129021,0.
 00000774,0.00005685,0.00006845,0.00054139,0.00047547,-0.00026082,-0.00
 019907,0.00012799,-0.00000747,0.00055793,-0.00010206,-0.00035860,-0.00
 038448,-0.00002812,0.00002504,0.00032927,-0.00059653,-0.00032942,0.264
 23432,0.02944840,-0.00988740,-0.00628745,0.00085592,-0.00274899,-0.000
 68251,-0.00003529,0.00012964,-0.00000759,-0.00119314,-0.00227648,-0.00
 036426,-0.02739472,-0.00432072,0.00417744,0.01230341,-0.03502755,-0.00
 172532,-0.00001126,-0.00000791,-0.00000469,0.00077465,-0.00039819,-0.0
 0008456,0.00044658,0.00002247,-0.00005738,-0.00000322,0.00004293,0.000
 07700,-0.00027715,0.00013078,0.00006403,-0.00090326,-0.00023548,0.0002
 3495,-0.01381499,0.05468343,0.00694024,-0.00375286,0.00405370,0.000933
 70,-0.00072615,0.00492181,0.00010022,-0.00008565,0.00027705,0.00093980
 ,-0.00019819,0.00532195,0.00421355,0.00166510,0.00470078,0.03123194,-0
 .00174816,-0.04706484,0.00013729,-0.00001372,-0.00001649,-0.00024341,-
 0.00003163,-0.00109881,0.00000984,0.00000113,-0.00029498,-0.00030566,0
 .00006756,-0.00086783,-0.00002293,0.00002183,-0.00027246,-0.00035664,0
 .00018137,-0.00124444,-0.04354023,0.00461001,0.03147086,0.00023775,-0.
 00033235,-0.00007654,-0.00022832,-0.00026149,0.00056357,-0.00035579,-0
 .00013504,-0.00014950,-0.00008357,-0.01196507,-0.01068175,-0.00134199,
 -0.00089343,0.00001675,0.00019901,0.00052790,0.00010381,0.00001375,0.0
 0006964,0.00004150,0.00001712,0.00005117,-0.00005119,-0.00001861,-0.00
 002316,-0.00001050,-0.00005072,0.00006280,-0.00011604,-0.03096406,-0.0
 0527138,-0.01859816,-0.00036575,-0.00023308,-0.00013851,0.00000122,0.0
 0001010,-0.00003269,0.05085492,0.00017129,-0.00000434,-0.00001237,0.00
 016337,-0.00037751,0.00073863,-0.00132100,-0.00053651,0.00010197,-0.01
 227773,-0.02317530,-0.02362562,-0.00036428,-0.00082948,-0.00030044,0.0
 0007569,0.00006178,0.00064943,0.00002767,-0.00004739,-0.00006160,-0.00
 004239,-0.00002392,-0.00011727,-0.00004277,-0.00003596,-0.00005774,0.0
 0006769,0.00041041,0.00005804,-0.00239204,-0.05606980,-0.05860095,-0.0
 0015938,0.00013992,-0.00022995,-0.00003656,0.00000364,-0.00003731,0.00
 720029,0.07499402,0.00009998,0.00017487,-0.00000595,-0.00014754,0.0000
 4572,-0.00008758,0.00037804,0.00042650,-0.00008909,-0.00677233,-0.0129
 5468,-0.00378414,0.00015405,0.00008731,-0.00013577,0.00002520,-0.00013
 296,0.00001761,-0.00000656,-0.00006682,-0.00002955,-0.00005676,-0.0000
 8470,0.00001429,0.00004227,-0.00002209,0.00001670,-0.00017578,0.000112
 45,-0.00014318,-0.01192624,-0.05888374,-0.17824860,-0.00018806,0.00006
 551,0.00014030,-0.00004602,0.00003402,0.00004331,0.00452785,0.08030233
 ,0.22079420,-0.00067864,-0.00010628,0.00002661,0.00212098,-0.00034323,
 -0.00023735,-0.00568234,0.00335050,0.00172380,-0.03931231,-0.01698105,
 0.01106644,-0.00088420,-0.00399891,-0.00010010,-0.00094770,-0.00059399
 ,-0.00003306,-0.00101120,-0.00004585,-0.00139942,0.00030373,0.00035859
 ,-0.00004859,-0.00039956,0.00020860,0.00005119,0.01792218,0.00385025,-
 0.00040317,-0.20076506,0.00914313,0.08465864,0.00055752,-0.00020151,-0
 .00007355,0.00014096,-0.00024695,-0.00003909,-0.02053224,0.00524066,0.
 01860804,0.36345219,0.00015629,0.00021222,0.00001736,-0.00101572,-0.00
 011469,-0.00012932,0.00407214,-0.00012025,-0.00017925,-0.02452012,0.00
 030685,0.00836196,-0.00126167,-0.00167511,0.00021919,-0.00102717,0.000
 20856,-0.00003530,-0.00044626,0.00052414,0.00141566,0.00000366,0.00003
 471,0.00004724,0.00011184,0.00020160,0.00001069,0.00627352,-0.03008534
 ,0.00550329,0.00337786,-0.04639542,0.00173437,-0.00007072,-0.00047159,
 -0.00000527,0.00021508,-0.00008802,-0.00006376,0.01292545,0.00112023,-
 0.00761972,-0.07214345,0.17620254,0.00003406,0.00006120,0.00003088,-0.
 00014096,0.00009508,0.00003211,-0.00015912,-0.00028795,-0.00048272,0.0
 0931174,0.00460677,0.00161807,0.00005762,0.00067013,0.00032400,0.00019
 991,-0.00003923,0.00005703,0.00040842,0.00112275,-0.00077842,-0.000052
 84,-0.00006918,-0.00002699,0.00002915,-0.00009223,-0.00009271,-0.00278
 595,0.00101745,0.00388995,0.08049006,0.00300690,-0.07557419,-0.0001291
 0,0.00002323,-0.00012435,-0.00006796,0.00004389,-0.00003974,0.03115591
 ,-0.00854138,-0.01901441,-0.08453024,-0.05135486,0.13338472,0.00013642
 ,-0.00021330,0.00037650,-0.00253798,0.00137250,0.00040575,-0.02391582,
 -0.02040796,-0.00611159,-0.00048857,0.00062176,-0.00074097,0.00042743,
 -0.00003105,0.00020881,0.00063025,0.00028462,-0.00004180,0.00326209,-0
 .00471615,-0.00659248,-0.00034246,-0.00039044,0.00003083,0.00037834,-0
 .00027069,-0.00024178,-0.08906061,-0.04161381,-0.00316297,-0.04006767,
 0.02889678,-0.01274691,-0.00006965,0.00041604,0.00000106,-0.00045636,0
 .00007016,0.00003326,-0.00016062,0.00228168,0.00041845,-0.08204779,0.0
 4369320,-0.00726695,0.27309653,-0.00055878,-0.00008986,0.00018726,0.00
 245500,0.00033360,-0.00034620,-0.02213683,-0.00373667,-0.00004080,-0.0
 0007906,0.00005444,0.00017151,-0.00056518,-0.00177382,-0.00009358,0.00
 057791,-0.00049315,-0.00007352,-0.00501874,-0.00660695,-0.01564040,0.0
 0007887,0.00000649,-0.00005194,-0.00049467,-0.00014611,-0.00016185,-0.
 04609733,-0.07302190,-0.00773334,0.03547200,-0.00810754,-0.00149729,0.
 00021977,0.00041865,-0.00001873,-0.00040227,-0.00003608,0.00005896,-0.
 00049924,-0.00109772,-0.00005958,0.05064600,-0.08767948,0.02990869,-0.
 00029177,0.23152413,0.00029697,0.00032146,-0.00029203,0.00150873,0.000
 33002,-0.00087635,-0.00649149,0.00049659,0.00542809,0.00231212,0.00039
 293,-0.00061414,-0.00014522,0.00011771,-0.00033360,0.00061673,0.000247
 48,-0.00025631,-0.01111845,-0.02139128,-0.01594515,-0.00005503,-0.0002
 9639,0.00015432,0.00007072,-0.00040414,0.00043207,-0.00972422,-0.01268
 261,-0.04062134,-0.01340454,-0.00545026,0.00970980,-0.00008567,0.00021
 763,0.00033663,-0.00032391,0.00005589,0.00022111,0.00352733,-0.0011103
 7,0.00203959,-0.01365801,0.03586387,-0.04027321,0.02174169,0.00482429,
 0.51429796,-0.00008779,0.00000957,-0.00007148,0.00038721,-0.00027836,-
 0.00026481,-0.00008628,0.00066571,0.00069582,-0.00024823,0.00012663,-0
 .00050099,-0.00005647,0.00013061,-0.00015761,-0.00013510,-0.00008588,-
 0.00005635,-0.00195691,-0.00274368,-0.00079845,0.00011354,0.00013541,0
 .00003456,-0.00009389,0.00014347,0.00017393,0.00840693,-0.00146122,-0.
 01864825,-0.00080450,-0.00149166,0.00127607,0.00006990,-0.00012529,0.0
 0010608,0.00016639,-0.00000805,0.00003013,0.00078275,-0.00079355,0.000
 90479,0.00539455,0.00642454,-0.01612379,-0.03768849,-0.00546755,0.0196
 7764,0.02503162,0.00014615,0.00011200,-0.00007155,-0.00022731,-0.00009
 662,-0.00017969,0.00116116,0.00061343,0.00025520,-0.00031940,0.0002517
 6,0.00023246,0.00004534,0.00017224,-0.00004608,-0.00016840,0.00014734,
 0.00000577,-0.00171927,-0.00242450,-0.00076466,0.00001186,-0.00001852,
 0.00003334,0.00014011,-0.00002341,0.00014041,-0.00095499,-0.00233194,-
 0.02078343,-0.00187894,0.00039201,-0.00076629,-0.00000683,-0.00012043,
 -0.00001564,0.00009803,-0.00000811,0.00000555,-0.00055563,0.00011957,-
 0.00073096,0.00610387,-0.00486350,0.01702913,-0.00581846,-0.01823515,-
 0.00229557,0.00449529,0.02586869,-0.00021415,-0.00012128,0.00019726,-0
 .00102687,-0.00045158,0.00044511,0.00414350,-0.00150489,-0.00210317,-0
 .00126749,0.00040053,0.00057477,0.00020821,-0.00004921,0.00012023,-0.0
 0067294,-0.00022725,0.00017560,-0.00098774,-0.00064804,0.00174792,0.00
 010134,0.00028972,-0.00008807,-0.00004622,0.00044566,-0.00016091,-0.01
 118430,-0.01375961,-0.01694461,0.00375636,0.00283712,-0.00542470,0.000
 11564,-0.00022679,-0.00019538,0.00039382,-0.00004664,-0.00015842,-0.00
 008934,-0.00027649,-0.00162140,-0.01489997,0.01160261,-0.01039890,0.01
 073193,-0.00613495,-0.44030382,0.01339356,0.00636677,0.47527239,-0.000
 04519,-0.00013635,-0.00000801,0.00013351,-0.00020757,-0.00047712,-0.00
 117630,-0.00072746,0.00028658,0.00603217,-0.00789691,0.00456679,-0.000
 95959,-0.00133041,0.00023847,0.00002038,0.00019530,0.00002302,-0.00011
 026,-0.00002626,-0.00001627,0.00004548,0.00005907,0.00002976,-0.000060
 54,-0.00002372,0.00002963,0.00132986,-0.00013018,0.00024115,-0.0570801
 5,0.04545929,-0.04276329,-0.00038972,-0.00031437,0.00027037,0.00003160
 ,-0.00002344,0.00001912,0.00202460,0.00219986,-0.00584952,-0.03677569,
 0.02556730,-0.01090986,-0.00611202,0.00081337,0.00250392,0.00119403,-0
 .00078701,-0.00126898,0.09203882,0.00032733,-0.00002227,-0.00005401,-0
 .00019702,-0.00041609,-0.00064914,-0.00123217,-0.00070802,0.00028748,0
 .00030594,-0.03334491,0.01728234,-0.00062512,-0.00105660,0.00047427,0.
 00002108,0.00027674,-0.00048828,0.00001282,-0.00006536,-0.00002748,-0.
 00003027,-0.00007427,0.00009423,-0.00002290,-0.00006801,0.00003143,-0.
 00013196,0.00052046,0.00018053,0.04668600,-0.10845187,0.07136510,-0.00
 037712,0.00014779,0.00032358,-0.00004378,0.00003491,0.00003881,-0.0006
 6312,0.00540178,-0.00067704,0.01745123,-0.00558760,0.00272855,0.001255
 19,-0.00005981,0.00059606,-0.00014848,0.00002314,-0.00054626,-0.062604
 18,0.14350325,0.00008517,-0.00007643,-0.00002352,-0.00010711,-0.000164
 58,-0.00004838,-0.00017660,-0.00014338,-0.00008982,0.00129781,0.008078
 56,0.00108910,0.00043711,0.00026827,-0.00008979,-0.00014042,0.00013352
 ,-0.00009823,0.00008370,-0.00000786,0.00016984,0.00001717,0.00001852,0
 .00001874,-0.00000898,0.00001026,0.00003061,-0.00077691,-0.00013117,-0
 .00037843,-0.04595171,0.07471616,-0.10175099,0.00039941,0.00009300,0.0
 0010109,0.00004245,-0.00003276,0.00002294,-0.00998016,0.01113684,-0.01
 993217,-0.00073260,-0.00356717,0.00726578,0.00281552,0.00031111,-0.001
 28863,-0.00047085,0.00020613,0.00101310,0.05311577,-0.09095849,0.11396
 428,0.00032096,0.00004796,0.00020505,-0.00285198,-0.00010778,0.0000090
 6,-0.02462029,0.02629797,-0.00838631,-0.00228915,0.00002952,0.00042814
 ,-0.00013436,0.00025015,0.00059822,0.00007087,0.00009685,-0.00000950,0
 .00388258,0.00055948,-0.00110815,0.00000237,-0.00007672,-0.00003230,-0
 .00077848,-0.00071346,-0.00018171,-0.05452984,0.04980725,-0.02550658,-
 0.00007286,0.00025987,-0.00040643,-0.00010516,0.00005742,-0.00000483,-
 0.00007339,0.00000218,-0.00004857,-0.00002941,0.00000115,0.00001021,-0
 .00085634,-0.00233355,0.00047943,0.00501704,-0.00865629,0.00275263,-0.
 00038899,0.00023589,-0.00118795,-0.00014104,0.00001699,0.00005092,0.07
 757818,-0.00003355,-0.00015531,-0.00019196,-0.00049643,-0.00002993,0.0
 0024056,0.01751742,-0.00576364,0.00191764,-0.00041508,0.00023031,0.000
 20009,0.00016570,0.00000110,-0.00003471,-0.00020877,-0.00012056,0.0000
 0655,0.00178142,0.00005930,0.00725959,-0