 Default is to use a total of   8 processors:
                                8 via shared-memory
                                1 via Linda
 Entering Link 1 = C:\G16W\l1.exe PID=      2700.
  
 Copyright (c) 1988-2019, Gaussian, Inc.  All Rights Reserved.
  
 This is part of the Gaussian(R) 16 program.  It is based on
 the Gaussian(R) 09 system (copyright 2009, Gaussian, Inc.),
 the Gaussian(R) 03 system (copyright 2003, Gaussian, Inc.),
 the Gaussian(R) 98 system (copyright 1998, Gaussian, Inc.),
 the Gaussian(R) 94 system (copyright 1995, Gaussian, Inc.),
 the Gaussian 92(TM) system (copyright 1992, Gaussian, Inc.),
 the Gaussian 90(TM) system (copyright 1990, Gaussian, Inc.),
 the Gaussian 88(TM) system (copyright 1988, Gaussian, Inc.),
 the Gaussian 86(TM) system (copyright 1986, Carnegie Mellon
 University), and the Gaussian 82(TM) system (copyright 1983,
 Carnegie Mellon University). Gaussian is a federally registered
 trademark of Gaussian, Inc.
  
 This software contains proprietary and confidential information,
 including trade secrets, belonging to Gaussian, Inc.
  
 This software is provided under written license and may be
 used, copied, transmitted, or stored only in accord with that
 written license.
  
 The following legend is applicable only to US Government
 contracts under FAR:
  
                    RESTRICTED RIGHTS LEGEND
  
 Use, reproduction and disclosure by the US Government is
 subject to restrictions as set forth in subparagraphs (a)
 and (c) of the Commercial Computer Software - Restricted
 Rights clause in FAR 52.227-19.
  
 Gaussian, Inc.
 340 Quinnipiac St., Bldg. 40, Wallingford CT 06492
  
  
 ---------------------------------------------------------------
 Warning -- This program may not be used in any manner that
 competes with the business of Gaussian, Inc. or will provide
 assistance to any competitor of Gaussian, Inc.  The licensee
 of this program is prohibited from giving any competitor of
 Gaussian, Inc. access to this program.  By using this program,
 the user acknowledges that Gaussian, Inc. is engaged in the
 business of creating and licensing software in the field of
 computational chemistry and represents and warrants to the
 licensee that it is not a competitor of Gaussian, Inc. and that
 it will not use this program in any manner prohibited above.
 ---------------------------------------------------------------
  

 Cite this work as:
 Gaussian 16, Revision C.01,
 M. J. Frisch, G. W. Trucks, H. B. Schlegel, G. E. Scuseria, 
 M. A. Robb, J. R. Cheeseman, G. Scalmani, V. Barone, 
 G. A. Petersson, H. Nakatsuji, X. Li, M. Caricato, A. V. Marenich, 
 J. Bloino, B. G. Janesko, R. Gomperts, B. Mennucci, H. P. Hratchian, 
 J. V. Ortiz, A. F. Izmaylov, J. L. Sonnenberg, D. Williams-Young, 
 F. Ding, F. Lipparini, F. Egidi, J. Goings, B. Peng, A. Petrone, 
 T. Henderson, D. Ranasinghe, V. G. Zakrzewski, J. Gao, N. Rega, 
 G. Zheng, W. Liang, M. Hada, M. Ehara, K. Toyota, R. Fukuda, 
 J. Hasegawa, M. Ishida, T. Nakajima, Y. Honda, O. Kitao, H. Nakai, 
 T. Vreven, K. Throssell, J. A. Montgomery, Jr., J. E. Peralta, 
 F. Ogliaro, M. J. Bearpark, J. J. Heyd, E. N. Brothers, K. N. Kudin, 
 V. N. Staroverov, T. A. Keith, R. Kobayashi, J. Normand, 
 K. Raghavachari, A. P. Rendell, J. C. Burant, S. S. Iyengar, 
 J. Tomasi, M. Cossi, J. M. Millam, M. Klene, C. Adamo, R. Cammi, 
 J. W. Ochterski, R. L. Martin, K. Morokuma, O. Farkas, 
 J. B. Foresman, and D. J. Fox, Gaussian, Inc., Wallingford CT, 2019.
 
 ******************************************
 Gaussian 16:  EM64W-G16RevC.01 30-May-2019
                15-Nov-2025 
 ******************************************
 %chk=C:\Users\al6323\OneDrive - Imperial College London\Desktop\TSR20251115\Exer
 cise 3\DA reaction\TS_endo_Berny_opt+freq.chk
 Default route: MaxDisk=10GB
 ----------------------------------------------------------------------
 # opt=(calcfc,tight,ts,noeigen,maxstep=5) freq rpm6 nosymm geom=connec
 tivity scf=tight
 ----------------------------------------------------------------------
 1/5=1,7=10,8=5,10=4,11=1,18=20,26=1,38=1,57=2/1,3;
 2/9=110,12=2,15=1,17=6,18=5,40=1/2;
 3/5=2,25=1,41=3900000,71=2,116=1,140=1/1,2,3;
 4/35=1/1;
 5/5=2,32=2,35=1,38=5/2;
 8/6=4,10=90,11=11/1;
 11/6=1,8=1,9=11,15=111,16=1,31=1/1,2,10;
 10/6=1,13=1,31=1/2;
 6/7=2,8=2,9=2,10=2,28=1/1;
 7/10=1,25=1,30=1/1,2,3,16;
 1/5=1,7=10,8=5,10=4,11=1,18=20,26=1/3(2);
 2/9=110,15=1/2;
 99//99;
 2/9=110,15=1/2;
 3/5=2,25=1,41=3900000,71=1,116=1,135=20/1,2,3;
 4/5=5,16=3,35=1/1;
 5/5=2,32=2,35=1,38=5/2;
 7/30=1/1,2,3,16;
 1/5=1,7=10,8=5,11=1,18=20,26=1/3(-5);
 2/9=110,15=1/2;
 6/7=2,8=2,9=2,10=2,19=2,28=1/1;
 99/9=1/99;
 -------------------
 Title Card Required
 -------------------
 Symbolic Z-matrix:
 Charge =  0 Multiplicity = 1
 C                    -5.68129  -1.65672   0.01152 
 C                    -4.31299  -1.74465  -0.23591 
 C                    -3.51455  -0.58541  -0.29699 
 C                    -4.1139    0.67046  -0.105 
 C                    -5.49554   0.74817   0.14595 
 C                    -6.27696  -0.40422   0.2025 
 H                    -1.9146   -0.86332  -1.6851 
 H                    -6.28649  -2.56062   0.05834 
 H                    -3.85502  -2.72177  -0.381 
 C                    -2.06315  -0.754    -0.59096 
 C                    -3.35434   1.96999  -0.11367 
 H                    -5.9618    1.72105   0.30036 
 H                    -7.34529  -0.33157   0.39673 
 H                    -3.29551   2.39369   0.91268 
 O                    -1.49228   1.8442   -0.83263 
 S                    -0.7112    1.09035   0.13743 
 O                    -0.72638   1.09882   1.60132 
 H                    -3.81873   2.71548  -0.79416 
 H                    -1.6711   -1.68304  -0.13142 
 

 GradGradGradGradGradGradGradGradGradGradGradGradGradGradGradGradGradGrad
 Berny optimization.
 Initialization pass.
                           ----------------------------
                           !    Initial Parameters    !
                           ! (Angstroms and Degrees)  !
 --------------------------                            --------------------------
 ! Name  Definition              Value          Derivative Info.                !
 --------------------------------------------------------------------------------
 ! R1    R(1,2)                  1.3933         calculate D2E/DX2 analytically  !
 ! R2    R(1,6)                  1.4            calculate D2E/DX2 analytically  !
 ! R3    R(1,8)                  1.0888         calculate D2E/DX2 analytically  !
 ! R4    R(2,3)                  1.4089         calculate D2E/DX2 analytically  !
 ! R5    R(2,9)                  1.0888         calculate D2E/DX2 analytically  !
 ! R6    R(3,4)                  1.4047         calculate D2E/DX2 analytically  !
 ! R7    R(3,10)                 1.4904         calculate D2E/DX2 analytically  !
 ! R8    R(4,5)                  1.4064         calculate D2E/DX2 analytically  !
 ! R9    R(4,11)                 1.5052         calculate D2E/DX2 analytically  !
 ! R10   R(5,6)                  1.3935         calculate D2E/DX2 analytically  !
 ! R11   R(5,12)                 1.0898         calculate D2E/DX2 analytically  !
 ! R12   R(6,13)                 1.0883         calculate D2E/DX2 analytically  !
 ! R13   R(7,10)                 1.1096         calculate D2E/DX2 analytically  !
 ! R14   R(10,16)                2.4            calculate D2E/DX2 analytically  !
 ! R15   R(10,19)                1.1081         calculate D2E/DX2 analytically  !
 ! R16   R(11,14)                1.1119         calculate D2E/DX2 analytically  !
 ! R17   R(11,15)                2.0            calculate D2E/DX2 analytically  !
 ! R18   R(11,18)                1.1111         calculate D2E/DX2 analytically  !
 ! R19   R(15,16)                1.4558         calculate D2E/DX2 analytically  !
 ! R20   R(16,17)                1.464          calculate D2E/DX2 analytically  !
 ! A1    A(2,1,6)              119.9033         calculate D2E/DX2 analytically  !
 ! A2    A(2,1,8)              120.0742         calculate D2E/DX2 analytically  !
 ! A3    A(6,1,8)              120.0225         calculate D2E/DX2 analytically  !
 ! A4    A(1,2,3)              120.8182         calculate D2E/DX2 analytically  !
 ! A5    A(1,2,9)              119.5628         calculate D2E/DX2 analytically  !
 ! A6    A(3,2,9)              119.6188         calculate D2E/DX2 analytically  !
 ! A7    A(2,3,4)              119.2009         calculate D2E/DX2 analytically  !
 ! A8    A(2,3,10)             117.8618         calculate D2E/DX2 analytically  !
 ! A9    A(4,3,10)             122.927          calculate D2E/DX2 analytically  !
 ! A10   A(3,4,5)              119.5336         calculate D2E/DX2 analytically  !
 ! A11   A(3,4,11)             123.7625         calculate D2E/DX2 analytically  !
 ! A12   A(5,4,11)             116.6832         calculate D2E/DX2 analytically  !
 ! A13   A(4,5,6)              120.8269         calculate D2E/DX2 analytically  !
 ! A14   A(4,5,12)             119.6633         calculate D2E/DX2 analytically  !
 ! A15   A(6,5,12)             119.5096         calculate D2E/DX2 analytically  !
 ! A16   A(1,6,5)              119.7167         calculate D2E/DX2 analytically  !
 ! A17   A(1,6,13)             120.1159         calculate D2E/DX2 analytically  !
 ! A18   A(5,6,13)             120.1672         calculate D2E/DX2 analytically  !
 ! A19   A(3,10,7)             109.6345         calculate D2E/DX2 analytically  !
 ! A20   A(3,10,16)            113.689          calculate D2E/DX2 analytically  !
 ! A21   A(3,10,19)            110.9505         calculate D2E/DX2 analytically  !
 ! A22   A(7,10,16)            107.4314         calculate D2E/DX2 analytically  !
 ! A23   A(7,10,19)            106.1985         calculate D2E/DX2 analytically  !
 ! A24   A(16,10,19)           108.6093         calculate D2E/DX2 analytically  !
 ! A25   A(4,11,14)            110.5093         calculate D2E/DX2 analytically  !
 ! A26   A(4,11,15)            114.6819         calculate D2E/DX2 analytically  !
 ! A27   A(4,11,18)            111.8316         calculate D2E/DX2 analytically  !
 ! A28   A(14,11,15)           107.8497         calculate D2E/DX2 analytically  !
 ! A29   A(14,11,18)           109.376          calculate D2E/DX2 analytically  !
 ! A30   A(15,11,18)           102.1907         calculate D2E/DX2 analytically  !
 ! A31   A(11,15,16)           107.0107         calculate D2E/DX2 analytically  !
 ! A32   A(10,16,15)            83.8845         calculate D2E/DX2 analytically  !
 ! A33   A(10,16,17)           107.5827         calculate D2E/DX2 analytically  !
 ! A34   A(15,16,17)           131.1272         calculate D2E/DX2 analytically  !
 ! D1    D(6,1,2,3)              0.0137         calculate D2E/DX2 analytically  !
 ! D2    D(6,1,2,9)            179.8386         calculate D2E/DX2 analytically  !
 ! D3    D(8,1,2,3)           -179.865          calculate D2E/DX2 analytically  !
 ! D4    D(8,1,2,9)             -0.0401         calculate D2E/DX2 analytically  !
 ! D5    D(2,1,6,5)             -0.1066         calculate D2E/DX2 analytically  !
 ! D6    D(2,1,6,13)          -179.9537         calculate D2E/DX2 analytically  !
 ! D7    D(8,1,6,5)            179.7722         calculate D2E/DX2 analytically  !
 ! D8    D(8,1,6,13)            -0.0749         calculate D2E/DX2 analytically  !
 ! D9    D(1,2,3,4)             -0.0077         calculate D2E/DX2 analytically  !
 ! D10   D(1,2,3,10)          -178.8749         calculate D2E/DX2 analytically  !
 ! D11   D(9,2,3,4)           -179.8325         calculate D2E/DX2 analytically  !
 ! D12   D(9,2,3,10)             1.3004         calculate D2E/DX2 analytically  !
 ! D13   D(2,3,4,5)              0.0937         calculate D2E/DX2 analytically  !
 ! D14   D(2,3,4,11)           178.3843         calculate D2E/DX2 analytically  !
 ! D15   D(10,3,4,5)           178.9005         calculate D2E/DX2 analytically  !
 ! D16   D(10,3,4,11)           -2.8089         calculate D2E/DX2 analytically  !
 ! D17   D(2,3,10,7)            81.7505         calculate D2E/DX2 analytically  !
 ! D18   D(2,3,10,16)         -157.9944         calculate D2E/DX2 analytically  !
 ! D19   D(2,3,10,19)          -35.234          calculate D2E/DX2 analytically  !
 ! D20   D(4,3,10,7)           -97.0713         calculate D2E/DX2 analytically  !
 ! D21   D(4,3,10,16)           23.1838         calculate D2E/DX2 analytically  !
 ! D22   D(4,3,10,19)          145.9441         calculate D2E/DX2 analytically  !
 ! D23   D(3,4,5,6)             -0.1889         calculate D2E/DX2 analytically  !
 ! D24   D(3,4,5,12)           179.6831         calculate D2E/DX2 analytically  !
 ! D25   D(11,4,5,6)          -178.5985         calculate D2E/DX2 analytically  !
 ! D26   D(11,4,5,12)            1.2735         calculate D2E/DX2 analytically  !
 ! D27   D(3,4,11,14)         -108.6916         calculate D2E/DX2 analytically  !
 ! D28   D(3,4,11,15)           13.4545         calculate D2E/DX2 analytically  !
 ! D29   D(3,4,11,18)          129.2055         calculate D2E/DX2 analytically  !
 ! D30   D(5,4,11,14)           69.6439         calculate D2E/DX2 analytically  !
 ! D31   D(5,4,11,15)         -168.2101         calculate D2E/DX2 analytically  !
 ! D32   D(5,4,11,18)          -52.4591         calculate D2E/DX2 analytically  !
 ! D33   D(4,5,6,1)              0.1952         calculate D2E/DX2 analytically  !
 ! D34   D(4,5,6,13)          -179.9578         calculate D2E/DX2 analytically  !
 ! D35   D(12,5,6,1)          -179.677          calculate D2E/DX2 analytically  !
 ! D36   D(12,5,6,13)            0.17           calculate D2E/DX2 analytically  !
 ! D37   D(3,10,16,15)         -63.4621         calculate D2E/DX2 analytically  !
 ! D38   D(3,10,16,17)          67.835          calculate D2E/DX2 analytically  !
 ! D39   D(7,10,16,15)          58.0284         calculate D2E/DX2 analytically  !
 ! D40   D(7,10,16,17)        -170.6745         calculate D2E/DX2 analytically  !
 ! D41   D(19,10,16,15)        172.5004         calculate D2E/DX2 analytically  !
 ! D42   D(19,10,16,17)        -56.2025         calculate D2E/DX2 analytically  !
 ! D43   D(4,11,15,16)         -69.6394         calculate D2E/DX2 analytically  !
 ! D44   D(14,11,15,16)         53.9389         calculate D2E/DX2 analytically  !
 ! D45   D(18,11,15,16)        169.1627         calculate D2E/DX2 analytically  !
 ! D46   D(11,15,16,10)         69.3144         calculate D2E/DX2 analytically  !
 ! D47   D(11,15,16,17)        -38.7313         calculate D2E/DX2 analytically  !
 --------------------------------------------------------------------------------
 Trust Radius=5.00D-02 FncErr=1.00D-07 GrdErr=1.00D-07 EigMax=2.50D+02 EigMin=1.00D-04
 Number of steps in this run=    111 maximum allowed number of steps=    114.
 Search for a saddle point of order  1.
 GradGradGradGradGradGradGradGradGradGradGradGradGradGradGradGradGradGrad

                          Input orientation:                          
 ---------------------------------------------------------------------
 Center     Atomic      Atomic             Coordinates (Angstroms)
 Number     Number       Type             X           Y           Z
 ---------------------------------------------------------------------
      1          6           0       -5.681293   -1.656720    0.011519
      2          6           0       -4.312994   -1.744653   -0.235911
      3          6           0       -3.514554   -0.585415   -0.296986
      4          6           0       -4.113905    0.670462   -0.104997
      5          6           0       -5.495539    0.748166    0.145953
      6          6           0       -6.276964   -0.404223    0.202499
      7          1           0       -1.914597   -0.863316   -1.685100
      8          1           0       -6.286492   -2.560615    0.058337
      9          1           0       -3.855016   -2.721774   -0.381000
     10          6           0       -2.063154   -0.754004   -0.590961
     11          6           0       -3.354342    1.969985   -0.113666
     12          1           0       -5.961804    1.721047    0.300363
     13          1           0       -7.345285   -0.331571    0.396734
     14          1           0       -3.295510    2.393690    0.912683
     15          8           0       -1.492283    1.844202   -0.832634
     16         16           0       -0.711198    1.090353    0.137434
     17          8           0       -0.726377    1.098823    1.601318
     18          1           0       -3.818734    2.715476   -0.794158
     19          1           0       -1.671100   -1.683037   -0.131416
 ---------------------------------------------------------------------
                    Distance matrix (angstroms):
                    1          2          3          4          5
     1  C    0.000000
     2  C    1.393268   0.000000
     3  C    2.436725   1.408925   0.000000
     4  C    2.808213   2.426840   1.404745   0.000000
     5  C    2.415792   2.785386   2.428772   1.406388   0.000000
     6  C    1.400017   2.417878   2.813046   2.434816   1.393493
     7  H    4.206663   2.937552   2.136341   3.112259   4.332757
     8  H    1.088800   2.155707   3.422179   3.897009   3.403133
     9  H    2.150279   1.088834   2.164948   3.413278   3.874206
    10  C    3.777408   2.483793   1.490439   2.543786   3.818485
    11  C    4.310842   3.838293   2.566971   1.505248   2.478905
    12  H    3.401680   3.875208   3.415498   2.163972   1.089836
    13  H    2.161777   3.404678   3.901305   3.420179   2.156452
    14  H    4.786427   4.413663   3.222786   2.162165   2.852325
    15  O    5.524206   4.603516   3.206171   2.963110   4.264386
    16  S    5.680151   4.598868   3.294803   3.437077   4.796571
    17  O    5.888265   4.931996   3.770165   3.817113   4.998595
    18  H    4.820201   4.522021   3.351952   2.178107   2.750599
    19  H    4.012827   2.644678   2.151863   3.392190   4.540266
                    6          7          8          9         10
     6  C    0.000000
     7  H    4.775359   0.000000
     8  H    2.161227   5.003385   0.000000
     9  H    3.402550   2.986598   2.476098   0.000000
    10  C    4.302108   1.109576   4.639183   2.669639   0.000000
    11  C    3.778696   3.545401   5.399391   4.725964   3.052064
    12  H    2.150738   5.196238   4.300771   4.964017   4.703171
    13  H    1.088262   5.840305   2.490822   4.301153   5.390261
    14  H    4.149910   4.389019   5.849874   5.306094   3.699679
    15  O    5.387029   2.869791   6.571201   5.160873   2.671137
    16  S    5.763311   2.930295   6.664813   4.968368   2.400000
    17  O    5.918180   4.007792   6.832800   5.321177   3.166390
    18  H    4.094966   4.150575   5.886741   5.453045   3.893667
    19  H    4.791749   1.773461   4.701914   2.431205   1.108147
                   11         12         13         14         15
    11  C    0.000000
    12  H    2.651839   0.000000
    13  H    4.635223   2.477206   0.000000
    14  H    1.111926   2.817182   4.908557   0.000000
    15  O    2.000000   4.612534   6.364194   2.568987   0.000000
    16  S    2.796965   5.290859   6.789714   2.996392   1.455821
    17  O    3.256731   5.430409   6.878008   2.958267   2.658256
    18  H    1.111074   2.603769   4.810331   1.814005   2.484546
    19  H    4.022212   5.494030   5.856773   4.510937   3.600707
                   16         17         18         19
    16  S    0.000000
    17  O    1.463987   0.000000
    18  H    3.628452   4.232557   0.000000
    19  H    2.947098   3.410808   4.939481   0.000000
 Symmetry turned off by external request.
 Stoichiometry    C8H8O2S
 Framework group  C1[X(C8H8O2S)]
 Deg. of freedom    51
 Full point group                 C1      NOp   1
 Rotational constants (GHZ):           2.1803686           0.6084677           0.5387861
 Standard basis: VSTO-6G (5D, 7F)
    57 basis functions,   348 primitive gaussians,    58 cartesian basis functions
    29 alpha electrons       29 beta electrons
       nuclear repulsion energy       333.2881868742 Hartrees.
 Integral buffers will be    131072 words long.
 Regular integral format.
 Two-electron integral symmetry is turned off.
 Do NDO integrals.
 One-electron integrals computed using PRISM.
 NBasis=    57 RedAO= F EigKep=  0.00D+00  NBF=    57
 NBsUse=    57 1.00D-04 EigRej=  0.00D+00 NBFU=    57
 Nonelectrostatic core Hamiltonian diagonalized for initial guess.
 Keep J ints in memory in canonical form, NReq=1859402.
 Overlap will be assumed to be unity.
 Requested convergence on RMS density matrix=1.00D-08 within 128 cycles.
 Requested convergence on MAX density matrix=1.00D-06.
 Requested convergence on             energy=1.00D-06.
 No special actions if energy rises.
 SCF Done:  E(RPM6) =  0.813122353191E-01 A.U. after   25 cycles
            NFock= 24  Conv=0.42D-08     -V/T= 1.0007
 Range of M.O.s used for correlation:     1    57
 NBasis=    57 NAE=    29 NBE=    29 NFC=     0 NFV=     0
 NROrb=     57 NOA=    29 NOB=    29 NVA=    28 NVB=    28
 Symmetrizing basis deriv contribution to polar:
 IMax=3 JMax=2 DiffMx= 0.00D+00
 G2DrvN: will do    20 centers at a time, making    1 passes.
 Calling FoFCou, ICntrl=  3107 FMM=F I1Cent=   0 AccDes= 0.00D+00.
 End of G2Drv F.D. properties file   721 does not exist.
 End of G2Drv F.D. properties file   722 does not exist.
 End of G2Drv F.D. properties file   788 does not exist.
          IDoAtm=1111111111111111111
          Differentiating once with respect to nuclear coordinates.
          Electric field/nuclear overlap derivatives assumed to be zero.
 Keep J ints in memory in canonical form, NReq=1861376.
          There are    60 degrees of freedom in the 1st order CPHF.  IDoFFX=5 NUNeed=    60.
 LinEq1:  Iter=  0 NonCon=    57 RMS=1.40D-02 Max=1.42D-01 NDo=    57
 AX will form    60 AO Fock derivatives at one time.
 LinEq1:  Iter=  1 NonCon=    57 RMS=5.86D-03 Max=9.79D-02 NDo=    60
 LinEq1:  Iter=  2 NonCon=    57 RMS=1.16D-03 Max=1.38D-02 NDo=    60
 LinEq1:  Iter=  3 NonCon=    57 RMS=2.99D-04 Max=5.76D-03 NDo=    60
 LinEq1:  Iter=  4 NonCon=    57 RMS=8.91D-05 Max=9.98D-04 NDo=    60
 LinEq1:  Iter=  5 NonCon=    57 RMS=2.30D-05 Max=2.33D-04 NDo=    60
 LinEq1:  Iter=  6 NonCon=    57 RMS=8.04D-06 Max=6.57D-05 NDo=    60
 LinEq1:  Iter=  7 NonCon=    57 RMS=2.50D-06 Max=2.74D-05 NDo=    60
 LinEq1:  Iter=  8 NonCon=    57 RMS=6.28D-07 Max=7.22D-06 NDo=    60
 LinEq1:  Iter=  9 NonCon=    41 RMS=1.94D-07 Max=2.06D-06 NDo=    60
 LinEq1:  Iter= 10 NonCon=    21 RMS=5.27D-08 Max=7.15D-07 NDo=    41
 LinEq1:  Iter= 11 NonCon=     1 RMS=1.19D-08 Max=1.04D-07 NDo=    21
 LinEq1:  Iter= 12 NonCon=     0 RMS=2.79D-09 Max=2.27D-08 NDo=     1
 Linear equations converged to 1.000D-08 1.000D-07 after    12 iterations.
 End of Minotr F.D. properties file   721 does not exist.
 End of Minotr F.D. properties file   722 does not exist.
 End of Minotr F.D. properties file   788 does not exist.

 **********************************************************************

            Population analysis using the SCF Density.

 **********************************************************************

 Alpha  occ. eigenvalues --   -1.15923  -1.10228  -1.07855  -1.00145  -0.97547
 Alpha  occ. eigenvalues --   -0.89107  -0.82782  -0.78064  -0.75649  -0.71324
 Alpha  occ. eigenvalues --   -0.62471  -0.58708  -0.57883  -0.57641  -0.55467
 Alpha  occ. eigenvalues --   -0.53476  -0.53061  -0.52232  -0.50644  -0.49840
 Alpha  occ. eigenvalues --   -0.46152  -0.45458  -0.44849  -0.43830  -0.43003
 Alpha  occ. eigenvalues --   -0.36833  -0.36164  -0.34525  -0.28872
 Alpha virt. eigenvalues --   -0.05852   0.00034   0.00151   0.01547   0.01952
 Alpha virt. eigenvalues --    0.09218   0.10254   0.11392   0.14962   0.16019
 Alpha virt. eigenvalues --    0.16301   0.16747   0.17806   0.18109   0.18459
 Alpha virt. eigenvalues --    0.18720   0.20344   0.20786   0.21965   0.22561
 Alpha virt. eigenvalues --    0.23031   0.23533   0.26344   0.26404   0.26941
 Alpha virt. eigenvalues --    0.27554   0.28385   0.30773
          Condensed to atoms (all electrons):
               1          2          3          4          5          6
     1  C    4.072254   0.000000   0.000000   0.000000   0.000000   0.000000
     2  C    0.000000   4.255569   0.000000   0.000000   0.000000   0.000000
     3  C    0.000000   0.000000   3.783016   0.000000   0.000000   0.000000
     4  C    0.000000   0.000000   0.000000   4.206872   0.000000   0.000000
     5  C    0.000000   0.000000   0.000000   0.000000   4.098879   0.000000
     6  C    0.000000   0.000000   0.000000   0.000000   0.000000   4.204757
     7  H    0.000000   0.000000   0.000000   0.000000   0.000000   0.000000
     8  H    0.000000   0.000000   0.000000   0.000000   0.000000   0.000000
     9  H    0.000000   0.000000   0.000000   0.000000   0.000000   0.000000
    10  C    0.000000   0.000000   0.000000   0.000000   0.000000   0.000000
    11  C    0.000000   0.000000   0.000000   0.000000   0.000000   0.000000
    12  H    0.000000   0.000000   0.000000   0.000000   0.000000   0.000000
    13  H    0.000000   0.000000   0.000000   0.000000   0.000000   0.000000
    14  H    0.000000   0.000000   0.000000   0.000000   0.000000   0.000000
    15  O    0.000000   0.000000   0.000000   0.000000   0.000000   0.000000
    16  S    0.000000   0.000000   0.000000   0.000000   0.000000   0.000000
    17  O    0.000000   0.000000   0.000000   0.000000   0.000000   0.000000
    18  H    0.000000   0.000000   0.000000   0.000000   0.000000   0.000000
    19  H    0.000000   0.000000   0.000000   0.000000   0.000000   0.000000
               7          8          9         10         11         12
     1  C    0.000000   0.000000   0.000000   0.000000   0.000000   0.000000
     2  C    0.000000   0.000000   0.000000   0.000000   0.000000   0.000000
     3  C    0.000000   0.000000   0.000000   0.000000   0.000000   0.000000
     4  C    0.000000   0.000000   0.000000   0.000000   0.000000   0.000000
     5  C    0.000000   0.000000   0.000000   0.000000   0.000000   0.000000
     6  C    0.000000   0.000000   0.000000   0.000000   0.000000   0.000000
     7  H    0.838482   0.000000   0.000000   0.000000   0.000000   0.000000
     8  H    0.000000   0.858433   0.000000   0.000000   0.000000   0.000000
     9  H    0.000000   0.000000   0.838309   0.000000   0.000000   0.000000
    10  C    0.000000   0.000000   0.000000   4.647504   0.000000   0.000000
    11  C    0.000000   0.000000   0.000000   0.000000   3.887329   0.000000
    12  H    0.000000   0.000000   0.000000   0.000000   0.000000   0.863198
    13  H    0.000000   0.000000   0.000000   0.000000   0.000000   0.000000
    14  H    0.000000   0.000000   0.000000   0.000000   0.000000   0.000000
    15  O    0.000000   0.000000   0.000000   0.000000   0.000000   0.000000
    16  S    0.000000   0.000000   0.000000   0.000000   0.000000   0.000000
    17  O    0.000000   0.000000   0.000000   0.000000   0.000000   0.000000
    18  H    0.000000   0.000000   0.000000   0.000000   0.000000   0.000000
    19  H    0.000000   0.000000   0.000000   0.000000   0.000000   0.000000
              13         14         15         16         17         18
     1  C    0.000000   0.000000   0.000000   0.000000   0.000000   0.000000
     2  C    0.000000   0.000000   0.000000   0.000000   0.000000   0.000000
     3  C    0.000000   0.000000   0.000000   0.000000   0.000000   0.000000
     4  C    0.000000   0.000000   0.000000   0.000000   0.000000   0.000000
     5  C    0.000000   0.000000   0.000000   0.000000   0.000000   0.000000
     6  C    0.000000   0.000000   0.000000   0.000000   0.000000   0.000000
     7  H    0.000000   0.000000   0.000000   0.000000   0.000000   0.000000
     8  H    0.000000   0.000000   0.000000   0.000000   0.000000   0.000000
     9  H    0.000000   0.000000   0.000000   0.000000   0.000000   0.000000
    10  C    0.000000   0.000000   0.000000   0.000000   0.000000   0.000000
    11  C    0.000000   0.000000   0.000000   0.000000   0.000000   0.000000
    12  H    0.000000   0.000000   0.000000   0.000000   0.000000   0.000000
    13  H    0.847105   0.000000   0.000000   0.000000   0.000000   0.000000
    14  H    0.000000   0.851233   0.000000   0.000000   0.000000   0.000000
    15  O    0.000000   0.000000   6.576269   0.000000   0.000000   0.000000
    16  S    0.000000   0.000000   0.000000   4.815696   0.000000   0.000000
    17  O    0.000000   0.000000   0.000000   0.000000   6.652306   0.000000
    18  H    0.000000   0.000000   0.000000   0.000000   0.000000   0.853323
    19  H    0.000000   0.000000   0.000000   0.000000   0.000000   0.000000
              19
     1  C    0.000000
     2  C    0.000000
     3  C    0.000000
     4  C    0.000000
     5  C    0.000000
     6  C    0.000000
     7  H    0.000000
     8  H    0.000000
     9  H    0.000000
    10  C    0.000000
    11  C    0.000000
    12  H    0.000000
    13  H    0.000000
    14  H    0.000000
    15  O    0.000000
    16  S    0.000000
    17  O    0.000000
    18  H    0.000000
    19  H    0.849464
 Mulliken charges:
               1
     1  C   -0.072254
     2  C   -0.255569
     3  C    0.216984
     4  C   -0.206872
     5  C   -0.098879
     6  C   -0.204757
     7  H    0.161518
     8  H    0.141567
     9  H    0.161691
    10  C   -0.647504
    11  C    0.112671
    12  H    0.136802
    13  H    0.152895
    14  H    0.148767
    15  O   -0.576269
    16  S    1.184304
    17  O   -0.652306
    18  H    0.146677
    19  H    0.150536
 Sum of Mulliken charges =   0.00000
 Mulliken charges with hydrogens summed into heavy atoms:
               1
     1  C    0.069312
     2  C   -0.093878
     3  C    0.216984
     4  C   -0.206872
     5  C    0.037924
     6  C   -0.051863
    10  C   -0.335450
    11  C    0.408115
    15  O   -0.576269
    16  S    1.184304
    17  O   -0.652306
 APT charges:
               1
     1  C   -0.072254
     2  C   -0.255569
     3  C    0.216984
     4  C   -0.206872
     5  C   -0.098879
     6  C   -0.204757
     7  H    0.161518
     8  H    0.141567
     9  H    0.161691
    10  C   -0.647504
    11  C    0.112671
    12  H    0.136802
    13  H    0.152895
    14  H    0.148767
    15  O   -0.576269
    16  S    1.184304
    17  O   -0.652306
    18  H    0.146677
    19  H    0.150536
 Sum of APT charges =   0.00000
 APT charges with hydrogens summed into heavy atoms:
               1
     1  C    0.069312
     2  C   -0.093878
     3  C    0.216984
     4  C   -0.206872
     5  C    0.037924
     6  C   -0.051863
    10  C   -0.335450
    11  C    0.408115
    15  O   -0.576269
    16  S    1.184304
    17  O   -0.652306
 Charge=              0.0000 electrons
 Dipole moment (field-independent basis, Debye):
    X=             -1.4908    Y=              0.9465    Z=             -1.3561  Tot=              2.2265
 N-N= 3.332881868742D+02 E-N=-5.200634962008D+02  KE=-1.095555915462D+02
  Exact polarizability:       0.000       0.000       0.000       0.000       0.000       0.000
 Approx polarizability:     119.230       6.772     111.921       1.613       8.954      56.378
 Calling FoFJK, ICntrl=    100127 FMM=F ISym2X=0 I1Cent= 0 IOpClX= 0 NMat=1 NMatS=1 NMatT=0.
 -------------------------------------------------------------------
 Center     Atomic                   Forces (Hartrees/Bohr)
 Number     Number              X              Y              Z
 -------------------------------------------------------------------
      1        6           0.003130131   -0.001256651   -0.000552249
      2        6          -0.006590198   -0.002207661    0.001782519
      3        6           0.031521063    0.004486369   -0.002978511
      4        6           0.023425565    0.010733665   -0.005389689
      5        6          -0.001368391    0.003442494    0.000624329
      6        6           0.000016458    0.002952141    0.000559548
      7        1           0.006649466    0.013022808    0.014025830
      8        1          -0.000275332   -0.000152495   -0.000051103
      9        1           0.000530319    0.000268977   -0.000227705
     10        6           0.002027845    0.005749283    0.013510437
     11        6           0.003112838   -0.007189451   -0.014920161
     12        1          -0.000643067   -0.000351845   -0.000029441
     13        1           0.000380991    0.000238075   -0.000186389
     14        1           0.021476183   -0.004147415   -0.009989615
     15        8          -0.106607677    0.048349791    0.008081132
     16       16           0.005397710   -0.086589100    0.024379443
     17        8          -0.006524377    0.002171296   -0.023701777
     18        1           0.021181382   -0.006638339   -0.004554285
     19        1           0.003159090    0.017118061   -0.000382311
 -------------------------------------------------------------------
 Cartesian Forces:  Max     0.106607677 RMS     0.021606797
 FormGI is forming the generalized inverse of G from B-inverse, IUseBI=4.

 GradGradGradGradGradGradGradGradGradGradGradGradGradGradGradGradGradGrad
 Berny optimization.
 Internal  Forces:  Max     0.078131318 RMS     0.013168737
 Search for a saddle point.
 Step number   1 out of a maximum of  111
 All quantities printed in internal units (Hartrees-Bohrs-Radians)
 Swapping is turned off.
 Second derivative matrix not updated -- analytic derivatives used.
 ITU=  0
     Eigenvalues ---   -0.04965  -0.00926  -0.00246   0.00193   0.00627
     Eigenvalues ---    0.01131   0.01222   0.01518   0.01812   0.01854
     Eigenvalues ---    0.02380   0.02613   0.02771   0.02935   0.02988
     Eigenvalues ---    0.03195   0.03310   0.03828   0.05163   0.05689
     Eigenvalues ---    0.06219   0.07328   0.08069   0.09045   0.09870
     Eigenvalues ---    0.10911   0.11095   0.11213   0.11531   0.13722
     Eigenvalues ---    0.14957   0.15469   0.16086   0.23643   0.23934
     Eigenvalues ---    0.24189   0.24588   0.25323   0.26355   0.26499
     Eigenvalues ---    0.27616   0.28129   0.33955   0.35478   0.36508
     Eigenvalues ---    0.43931   0.48944   0.52106   0.52787   0.53906
     Eigenvalues ---    0.68732
 Eigenvectors required to have negative eigenvalues:
                          R17       R14       R19       D37       D41
   1                    0.85611   0.35167  -0.15494  -0.10837  -0.10310
                          A34       A31       D32       D47       D29
   1                    0.09616  -0.08890  -0.08594  -0.08447  -0.08272
 RFO step:  Lambda0=7.116301536D-02 Lambda=-5.90062467D-02.
 Linear search not attempted -- option 19 set.
 Maximum step size (   0.050) exceeded in Quadratic search.
    -- Step size scaled by   0.057
 Iteration  1 RMS(Cart)=  0.00411777 RMS(Int)=  0.00003622
 Iteration  2 RMS(Cart)=  0.00003056 RMS(Int)=  0.00002514
 Iteration  3 RMS(Cart)=  0.00000000 RMS(Int)=  0.00002514
 Variable       Old X    -DE/DX   Delta X   Delta X   Delta X     New X
                                 (Linear)    (Quad)   (Total)
    R1        2.63290  -0.00160   0.00000  -0.00100  -0.00100   2.63189
    R2        2.64565   0.00205   0.00000   0.00071   0.00071   2.64636
    R3        2.05753   0.00028   0.00000   0.00014   0.00014   2.05768
    R4        2.66248   0.00400   0.00000   0.00155   0.00155   2.66403
    R5        2.05760   0.00001   0.00000   0.00013   0.00013   2.05772
    R6        2.65458   0.00594   0.00000   0.00096   0.00096   2.65554
    R7        2.81652  -0.02293   0.00000  -0.00513  -0.00513   2.81139
    R8        2.65769   0.00071   0.00000   0.00117   0.00117   2.65886
    R9        2.84451  -0.02224   0.00000  -0.00729  -0.00729   2.83721
   R10        2.63332  -0.00221   0.00000  -0.00091  -0.00091   2.63241
   R11        2.05949  -0.00004   0.00000   0.00002   0.00002   2.05951
   R12        2.05652  -0.00039   0.00000  -0.00007  -0.00007   2.05644
   R13        2.09679  -0.01422   0.00000  -0.00299  -0.00299   2.09381
   R14        4.53534  -0.05860   0.00000  -0.00225  -0.00225   4.53309
   R15        2.09409  -0.01339   0.00000  -0.00269  -0.00269   2.09140
   R16        2.10124  -0.00966   0.00000  -0.00221  -0.00221   2.09903
   R17        3.77945  -0.07813   0.00000   0.03910   0.03910   3.81855
   R18        2.09963  -0.01052   0.00000  -0.00268  -0.00268   2.09695
   R19        2.75110   0.05024   0.00000  -0.00074  -0.00073   2.75037
   R20        2.76653  -0.02362   0.00000  -0.00327  -0.00327   2.76326
    A1        2.09271   0.00107   0.00000   0.00017   0.00017   2.09287
    A2        2.09569  -0.00040   0.00000   0.00022   0.00022   2.09591
    A3        2.09479  -0.00067   0.00000  -0.00039  -0.00039   2.09440
    A4        2.10868   0.00083   0.00000   0.00113   0.00113   2.10981
    A5        2.08676   0.00022   0.00000   0.00018   0.00018   2.08695
    A6        2.08774  -0.00105   0.00000  -0.00131  -0.00131   2.08643
    A7        2.08045  -0.00388   0.00000  -0.00189  -0.00189   2.07856
    A8        2.05708   0.00216   0.00000  -0.00005  -0.00004   2.05703
    A9        2.14548   0.00173   0.00000   0.00196   0.00195   2.14743
   A10        2.08626   0.00201   0.00000   0.00072   0.00073   2.08698
   A11        2.16006   0.00627   0.00000   0.00189   0.00188   2.16194
   A12        2.03651  -0.00828   0.00000  -0.00263  -0.00262   2.03388
   A13        2.10883  -0.00060   0.00000   0.00011   0.00011   2.10894
   A14        2.08852   0.00104   0.00000  -0.00008  -0.00008   2.08844
   A15        2.08584  -0.00044   0.00000  -0.00003  -0.00003   2.08581
   A16        2.08945   0.00056   0.00000  -0.00024  -0.00024   2.08921
   A17        2.09642  -0.00002   0.00000  -0.00002  -0.00002   2.09639
   A18        2.09731  -0.00054   0.00000   0.00026   0.00026   2.09758
   A19        1.91348   0.00625   0.00000   0.00522   0.00522   1.91870
   A20        1.98425  -0.00749   0.00000   0.00316   0.00317   1.98741
   A21        1.93645   0.01213   0.00000   0.00366   0.00366   1.94011
   A22        1.87503  -0.00582   0.00000  -0.00889  -0.00890   1.86613
   A23        1.85351   0.00318   0.00000   0.00389   0.00383   1.85735
   A24        1.89559  -0.00816   0.00000  -0.00739  -0.00740   1.88819
   A25        1.92875   0.00924   0.00000   0.00793   0.00786   1.93661
   A26        2.00158  -0.00456   0.00000  -0.00318  -0.00317   1.99841
   A27        1.95183   0.01723   0.00000   0.01022   0.01015   1.96198
   A28        1.88233  -0.01171   0.00000  -0.01108  -0.01107   1.87126
   A29        1.90897   0.00420   0.00000   0.00845   0.00828   1.91725
   A30        1.78356  -0.01657   0.00000  -0.01384  -0.01382   1.76974
   A31        1.86769  -0.00003   0.00000  -0.00643  -0.00643   1.86126
   A32        1.46406   0.00785   0.00000   0.00246   0.00247   1.46653
   A33        1.87767  -0.00210   0.00000  -0.00052  -0.00053   1.87715
   A34        2.28860  -0.01251   0.00000   0.00065   0.00065   2.28925
    D1        0.00024  -0.00009   0.00000  -0.00021  -0.00021   0.00003
    D2        3.13878  -0.00121   0.00000  -0.00004  -0.00004   3.13874
    D3       -3.13924   0.00051   0.00000  -0.00020  -0.00020  -3.13944
    D4       -0.00070  -0.00061   0.00000  -0.00003  -0.00003  -0.00073
    D5       -0.00186   0.00095   0.00000   0.00001   0.00001  -0.00185
    D6       -3.14078   0.00029   0.00000  -0.00019  -0.00019  -3.14097
    D7        3.13762   0.00036   0.00000   0.00001   0.00001   3.13762
    D8       -0.00131  -0.00031   0.00000  -0.00020  -0.00020  -0.00150
    D9       -0.00013  -0.00177   0.00000   0.00019   0.00019   0.00005
   D10       -3.12196  -0.00256   0.00000  -0.00091  -0.00090  -3.12286
   D11       -3.13867  -0.00065   0.00000   0.00002   0.00002  -3.13865
   D12        0.02270  -0.00144   0.00000  -0.00108  -0.00108   0.02162
   D13        0.00164   0.00275   0.00000   0.00003   0.00002   0.00166
   D14        3.11339   0.00251   0.00000  -0.00071  -0.00071   3.11269
   D15        3.12240   0.00358   0.00000   0.00115   0.00115   3.12355
   D16       -0.04903   0.00334   0.00000   0.00042   0.00042  -0.04861
   D17        1.42682   0.01146   0.00000   0.00514   0.00515   1.43196
   D18       -2.75752   0.00348   0.00000  -0.00039  -0.00040  -2.75792
   D19       -0.61495  -0.00348   0.00000  -0.00499  -0.00500  -0.61995
   D20       -1.69421   0.01070   0.00000   0.00405   0.00406  -1.69016
   D21        0.40463   0.00272   0.00000  -0.00148  -0.00149   0.40315
   D22        2.54721  -0.00423   0.00000  -0.00608  -0.00609   2.54111
   D23       -0.00330  -0.00193   0.00000  -0.00022  -0.00022  -0.00352
   D24        3.13606  -0.00072   0.00000  -0.00004  -0.00004   3.13602
   D25       -3.11713  -0.00194   0.00000   0.00039   0.00039  -3.11674
   D26        0.02223  -0.00073   0.00000   0.00057   0.00057   0.02280
   D27       -1.89703   0.01596   0.00000   0.01139   0.01144  -1.88558
   D28        0.23482   0.00435   0.00000   0.00060   0.00060   0.23542
   D29        2.25506  -0.00789   0.00000  -0.01213  -0.01220   2.24286
   D30        1.21551   0.01589   0.00000   0.01072   0.01078   1.22630
   D31       -2.93582   0.00427   0.00000  -0.00006  -0.00006  -2.93588
   D32       -0.91558  -0.00797   0.00000  -0.01279  -0.01286  -0.92845
   D33        0.00341   0.00006   0.00000   0.00020   0.00020   0.00361
   D34       -3.14086   0.00072   0.00000   0.00040   0.00040  -3.14046
   D35       -3.13596  -0.00116   0.00000   0.00002   0.00002  -3.13594
   D36        0.00297  -0.00049   0.00000   0.00022   0.00022   0.00319
   D37       -1.10762   0.01089   0.00000  -0.00416  -0.00416  -1.11178
   D38        1.18394  -0.00006   0.00000  -0.00274  -0.00274   1.18121
   D39        1.01279   0.00990   0.00000  -0.00183  -0.00185   1.01094
   D40       -2.97883  -0.00104   0.00000  -0.00041  -0.00043  -2.97926
   D41        3.01070   0.00657   0.00000  -0.00554  -0.00552   3.00518
   D42       -0.98092  -0.00438   0.00000  -0.00412  -0.00410  -0.98502
   D43       -1.21544   0.01210   0.00000   0.00167   0.00167  -1.21377
   D44        0.94141   0.01200   0.00000   0.00131   0.00128   0.94269
   D45        2.95245   0.00455   0.00000   0.00011   0.00012   2.95257
   D46        1.20977   0.00615   0.00000  -0.00420  -0.00420   1.20557
   D47       -0.67599   0.00417   0.00000  -0.00579  -0.00579  -0.68178
         Item               Value     Threshold  Converged?
 Maximum Force            0.078131     0.000015     NO 
 RMS     Force            0.013169     0.000010     NO 
 Maximum Displacement     0.019744     0.000060     NO 
 RMS     Displacement     0.004120     0.000040     NO 
 Predicted change in Energy= 9.500525D-04
 GradGradGradGradGradGradGradGradGradGradGradGradGradGradGradGradGradGrad

                          Input orientation:                          
 ---------------------------------------------------------------------
 Center     Atomic      Atomic             Coordinates (Angstroms)
 Number     Number       Type             X           Y           Z
 ---------------------------------------------------------------------
      1          6           0       -5.682055   -1.657443    0.011016
      2          6           0       -4.314205   -1.744215   -0.236322
      3          6           0       -3.514884   -0.584578   -0.297214
      4          6           0       -4.116302    0.670732   -0.104285
      5          6           0       -5.498570    0.747267    0.147021
      6          6           0       -6.278990   -0.405258    0.202835
      7          1           0       -1.910697   -0.858189   -1.681656
      8          1           0       -6.286849   -2.561729    0.057301
      9          1           0       -3.855313   -2.720894   -0.382000
     10          6           0       -2.065986   -0.753477   -0.589605
     11          6           0       -3.362888    1.969382   -0.110793
     12          1           0       -5.965487    1.719749    0.302029
     13          1           0       -7.347379   -0.333682    0.396880
     14          1           0       -3.291547    2.392488    0.913743
     15          8           0       -1.481835    1.843232   -0.838055
     16         16           0       -0.708448    1.086563    0.135397
     17          8           0       -0.725987    1.098316    1.597501
     18          1           0       -3.813471    2.716492   -0.796463
     19          1           0       -1.670248   -1.677879   -0.127319
 ---------------------------------------------------------------------
                    Distance matrix (angstroms):
                    1          2          3          4          5
     1  C    0.000000
     2  C    1.392738   0.000000
     3  C    2.437761   1.409745   0.000000
     4  C    2.808074   2.426638   1.405251   0.000000
     5  C    2.415532   2.785167   2.430260   1.407009   0.000000
     6  C    1.400391   2.417860   2.814692   2.435015   1.393012
     7  H    4.210355   2.941238   2.136576   3.112940   4.335248
     8  H    1.088876   2.155428   3.423244   3.896947   3.402777
     9  H    2.149971   1.088901   2.164931   3.412971   3.874054
    10  C    3.775428   2.482108   1.487724   2.543168   3.818046
    11  C    4.306650   3.835566   2.565262   1.501388   2.474100
    12  H    3.401536   3.874997   3.416793   2.164489   1.089845
    13  H    2.162068   3.404511   3.902913   3.420507   2.156148
    14  H    4.788673   4.413705   3.221680   2.163572   2.857545
    15  O    5.533308   4.610226   3.212485   2.975499   4.278513
    16  S    5.681708   4.599235   3.294837   3.441487   4.802137
    17  O    5.888442   4.931349   3.768292   3.817478   5.000467
    18  H    4.824411   4.523539   3.351935   2.180814   2.758182
    19  H    4.014244   2.647035   2.151012   3.391119   4.540115
                    6          7          8          9         10
     6  C    0.000000
     7  H    4.778958   0.000000
     8  H    2.161391   5.007667   0.000000
     9  H    3.402707   2.990035   2.476022   0.000000
    10  C    4.301002   1.107996   4.637235   2.667493   0.000000
    11  C    3.773715   3.545649   5.395255   4.723846   3.053715
    12  H    2.150297   5.198278   4.300491   4.963874   4.702974
    13  H    1.088223   5.844051   2.490830   4.301158   5.389108
    14  H    4.154226   4.382892   5.852315   5.305041   3.695829
    15  O    5.399246   2.862388   6.579780   5.164555   2.673174
    16  S    5.767237   2.920470   6.665935   4.966607   2.398810
    17  O    5.919601   3.998040   6.833106   5.319537   3.163569
    18  H    4.101549   4.145173   5.891191   5.453320   3.890652
    19  H    4.792607   1.773604   4.704071   2.434595   1.106724
                   11         12         13         14         15
    11  C    0.000000
    12  H    2.646934   0.000000
    13  H    4.630119   2.476934   0.000000
    14  H    1.110757   2.824310   4.914155   0.000000
    15  O    2.020689   4.627977   6.377196   2.577894   0.000000
    16  S    2.808207   5.297655   6.794179   2.997275   1.455433
    17  O    3.260409   5.432935   6.880039   2.953727   2.656716
    18  H    1.109658   2.613686   4.818312   1.817192   2.490148
    19  H    4.020923   5.493387   5.857599   4.503367   3.597064
                   16         17         18         19
    16  S    0.000000
    17  O    1.462256   0.000000
    18  H    3.628525   4.228724   0.000000
    19  H    2.938745   3.402043   4.934740   0.000000
 Symmetry turned off by external request.
 Stoichiometry    C8H8O2S
 Framework group  C1[X(C8H8O2S)]
 Deg. of freedom    51
 Full point group                 C1      NOp   1
 Rotational constants (GHZ):           2.1809615           0.6076382           0.5381387
 Standard basis: VSTO-6G (5D, 7F)
    57 basis functions,   348 primitive gaussians,    58 cartesian basis functions
    29 alpha electrons       29 beta electrons
       nuclear repulsion energy       333.2187367593 Hartrees.
 Integral buffers will be    131072 words long.
 Regular integral format.
 Two-electron integral symmetry is turned off.
 Do NDO integrals.
 One-electron integrals computed using PRISM.
 NBasis=    57 RedAO= F EigKep=  0.00D+00  NBF=    57
 NBsUse=    57 1.00D-04 EigRej=  0.00D+00 NBFU=    57
 Initial guess from the checkpoint file:  "C:\Users\al6323\OneDrive - Imperial College London\Desktop\TSR20251115\Exercise 3\DA reaction\TS_endo_Berny_opt+freq.chk"
 B after Tr=    -0.000044   -0.004182   -0.003598
         Rot=    1.000000    0.000067   -0.000188    0.000223 Ang=   0.03 deg.
 Keep J ints in memory in canonical form, NReq=1859402.
 Overlap will be assumed to be unity.
 Requested convergence on RMS density matrix=1.00D-08 within 128 cycles.
 Requested convergence on MAX density matrix=1.00D-06.
 Requested convergence on             energy=1.00D-06.
 No special actions if energy rises.
 SCF Done:  E(RPM6) =  0.822617133244E-01 A.U. after   17 cycles
            NFock= 16  Conv=0.31D-08     -V/T= 1.0008
 Calling FoFJK, ICntrl=      2127 FMM=F ISym2X=0 I1Cent= 0 IOpClX= 0 NMat=1 NMatS=1 NMatT=0.
 -------------------------------------------------------------------
 Center     Atomic                   Forces (Hartrees/Bohr)
 Number     Number              X              Y              Z
 -------------------------------------------------------------------
      1        6           0.002989139   -0.001189397   -0.000514882
      2        6          -0.006287857   -0.002087134    0.001722017
      3        6           0.029980434    0.004417043   -0.002734673
      4        6           0.022569027    0.010067948   -0.005265011
      5        6          -0.001318861    0.003274040    0.000596771
      6        6           0.000011837    0.002806404    0.000545397
      7        1           0.006356262    0.012643079    0.013413562
      8        1          -0.000268240   -0.000143610   -0.000050943
      9        1           0.000515100    0.000260529   -0.000234093
     10        6           0.003178793    0.006371467    0.013481664
     11        6           0.003505417   -0.006252143   -0.014567652
     12        1          -0.000609771   -0.000332834   -0.000029634
     13        1           0.000359308    0.000221782   -0.000181013
     14        1           0.020866087   -0.004111527   -0.009734911
     15        8          -0.103114341    0.046945827    0.008400126
     16       16           0.004218410   -0.084889705    0.022326046
     17        8          -0.006491157    0.002225858   -0.022399171
     18        1           0.020462694   -0.006644870   -0.004445023
     19        1           0.003077716    0.016417242   -0.000328576
 -------------------------------------------------------------------
 Cartesian Forces:  Max     0.103114341 RMS     0.020945749

 GradGradGradGradGradGradGradGradGradGradGradGradGradGradGradGradGradGrad
 Berny optimization.
 FormGI is forming the generalized inverse of G from B-inverse, IUseBI=4.
 Internal  Forces:  Max     0.076014685 RMS     0.012782832
 Search for a saddle point.
 Step number   2 out of a maximum of  111
 All quantities printed in internal units (Hartrees-Bohrs-Radians)
 Swapping is turned off.
 Update second derivatives using D2CorX and points    1    2
 ITU=  0  0
     Eigenvalues ---   -0.05054  -0.00920  -0.00246   0.00193   0.00627
     Eigenvalues ---    0.01131   0.01222   0.01518   0.01812   0.01853
     Eigenvalues ---    0.02380   0.02613   0.02771   0.02935   0.02988
     Eigenvalues ---    0.03197   0.03310   0.03833   0.05165   0.05688
     Eigenvalues ---    0.06224   0.07327   0.08071   0.09047   0.09870
     Eigenvalues ---    0.10911   0.11095   0.11213   0.11531   0.13723
     Eigenvalues ---    0.14957   0.15469   0.16086   0.23643   0.23934
     Eigenvalues ---    0.24189   0.24588   0.25324   0.26355   0.26499
     Eigenvalues ---    0.27616   0.28129   0.33959   0.35477   0.36511
     Eigenvalues ---    0.43931   0.48944   0.52106   0.52787   0.53906
     Eigenvalues ---    0.68732
 Eigenvectors required to have negative eigenvalues:
                          R17       R14       R19       D37       D41
   1                    0.85689   0.34933  -0.15456  -0.10835  -0.10270
                          A34       A31       D32       D47       D29
   1                    0.09543  -0.08880  -0.08783  -0.08462  -0.08455
 RFO step:  Lambda0=6.855323087D-02 Lambda=-5.74469914D-02.
 Linear search not attempted -- option 19 set.
 Maximum step size (   0.050) exceeded in Quadratic search.
    -- Step size scaled by   0.057
 Iteration  1 RMS(Cart)=  0.00417871 RMS(Int)=  0.00003638
 Iteration  2 RMS(Cart)=  0.00003056 RMS(Int)=  0.00002526
 Iteration  3 RMS(Cart)=  0.00000000 RMS(Int)=  0.00002526
 Variable       Old X    -DE/DX   Delta X   Delta X   Delta X     New X
                                 (Linear)    (Quad)   (Total)
    R1        2.63189  -0.00152   0.00000  -0.00097  -0.00097   2.63092
    R2        2.64636   0.00195   0.00000   0.00069   0.00069   2.64704
    R3        2.05768   0.00027   0.00000   0.00014   0.00014   2.05782
    R4        2.66403   0.00379   0.00000   0.00151   0.00151   2.66554
    R5        2.05772   0.00001   0.00000   0.00013   0.00013   2.05785
    R6        2.65554   0.00564   0.00000   0.00095   0.00094   2.65648
    R7        2.81139  -0.02178   0.00000  -0.00492  -0.00492   2.80647
    R8        2.65886   0.00069   0.00000   0.00115   0.00115   2.66001
    R9        2.83721  -0.02110   0.00000  -0.00710  -0.00710   2.83011
   R10        2.63241  -0.00210   0.00000  -0.00089  -0.00088   2.63153
   R11        2.05951  -0.00004   0.00000   0.00002   0.00002   2.05952
   R12        2.05644  -0.00037   0.00000  -0.00007  -0.00007   2.05638
   R13        2.09381  -0.01352   0.00000  -0.00287  -0.00287   2.09094
   R14        4.53309  -0.05784   0.00000  -0.00331  -0.00331   4.52978
   R15        2.09140  -0.01275   0.00000  -0.00258  -0.00258   2.08882
   R16        2.09903  -0.00921   0.00000  -0.00213  -0.00213   2.09689
   R17        3.81855  -0.07601   0.00000   0.03933   0.03933   3.85787
   R18        2.09695  -0.01004   0.00000  -0.00261  -0.00261   2.09434
   R19        2.75037   0.04823   0.00000  -0.00083  -0.00082   2.74954
   R20        2.76326  -0.02230   0.00000  -0.00308  -0.00308   2.76019
    A1        2.09287   0.00102   0.00000   0.00016   0.00016   2.09303
    A2        2.09591  -0.00038   0.00000   0.00022   0.00022   2.09613
    A3        2.09440  -0.00064   0.00000  -0.00038  -0.00038   2.09402
    A4        2.10981   0.00079   0.00000   0.00112   0.00112   2.11092
    A5        2.08695   0.00022   0.00000   0.00018   0.00018   2.08713
    A6        2.08643  -0.00101   0.00000  -0.00129  -0.00129   2.08513
    A7        2.07856  -0.00368   0.00000  -0.00185  -0.00185   2.07671
    A8        2.05703   0.00210   0.00000  -0.00009  -0.00009   2.05694
    A9        2.14743   0.00160   0.00000   0.00197   0.00196   2.14939
   A10        2.08698   0.00190   0.00000   0.00071   0.00071   2.08769
   A11        2.16194   0.00597   0.00000   0.00178   0.00177   2.16372
   A12        2.03388  -0.00787   0.00000  -0.00250  -0.00250   2.03138
   A13        2.10894  -0.00057   0.00000   0.00011   0.00011   2.10905
   A14        2.08844   0.00099   0.00000  -0.00009  -0.00009   2.08835
   A15        2.08581  -0.00042   0.00000  -0.00002  -0.00002   2.08579
   A16        2.08921   0.00053   0.00000  -0.00024  -0.00024   2.08897
   A17        2.09639  -0.00002   0.00000  -0.00002  -0.00002   2.09637
   A18        2.09758  -0.00051   0.00000   0.00026   0.00026   2.09784
   A19        1.91870   0.00599   0.00000   0.00513   0.00513   1.92383
   A20        1.98741  -0.00718   0.00000   0.00328   0.00329   1.99071
   A21        1.94011   0.01169   0.00000   0.00354   0.00354   1.94365
   A22        1.86613  -0.00569   0.00000  -0.00889  -0.00890   1.85723
   A23        1.85735   0.00299   0.00000   0.00383   0.00377   1.86112
   A24        1.88819  -0.00790   0.00000  -0.00737  -0.00738   1.88081
   A25        1.93661   0.00871   0.00000   0.00770   0.00762   1.94424
   A26        1.99841  -0.00434   0.00000  -0.00325  -0.00324   1.99516
   A27        1.96198   0.01645   0.00000   0.01003   0.00995   1.97192
   A28        1.87126  -0.01137   0.00000  -0.01094  -0.01094   1.86032
   A29        1.91725   0.00383   0.00000   0.00823   0.00806   1.92531
   A30        1.76974  -0.01605   0.00000  -0.01382  -0.01380   1.75594
   A31        1.86126   0.00000   0.00000  -0.00645  -0.00645   1.85481
   A32        1.46653   0.00777   0.00000   0.00269   0.00270   1.46924
   A33        1.87715  -0.00209   0.00000  -0.00064  -0.00065   1.87650
   A34        2.28925  -0.01237   0.00000   0.00040   0.00040   2.28964
    D1        0.00003  -0.00009   0.00000  -0.00021  -0.00021  -0.00018
    D2        3.13874  -0.00117   0.00000  -0.00003  -0.00003   3.13870
    D3       -3.13944   0.00049   0.00000  -0.00020  -0.00020  -3.13964
    D4       -0.00073  -0.00059   0.00000  -0.00003  -0.00003  -0.00076
    D5       -0.00185   0.00092   0.00000   0.00001   0.00001  -0.00184
    D6       -3.14097   0.00028   0.00000  -0.00019  -0.00019  -3.14116
    D7        3.13762   0.00035   0.00000   0.00000   0.00001   3.13763
    D8       -0.00150  -0.00029   0.00000  -0.00020  -0.00020  -0.00170
    D9        0.00005  -0.00171   0.00000   0.00019   0.00019   0.00024
   D10       -3.12286  -0.00248   0.00000  -0.00091  -0.00091  -3.12377
   D11       -3.13865  -0.00064   0.00000   0.00001   0.00001  -3.13864
   D12        0.02162  -0.00140   0.00000  -0.00109  -0.00109   0.02053
   D13        0.00166   0.00266   0.00000   0.00003   0.00003   0.00169
   D14        3.11269   0.00241   0.00000  -0.00073  -0.00073   3.11195
   D15        3.12355   0.00347   0.00000   0.00117   0.00116   3.12471
   D16       -0.04861   0.00321   0.00000   0.00041   0.00040  -0.04820
   D17        1.43196   0.01116   0.00000   0.00514   0.00514   1.43711
   D18       -2.75792   0.00332   0.00000  -0.00038  -0.00038  -2.75830
   D19       -0.61995  -0.00342   0.00000  -0.00496  -0.00497  -0.62492
   D20       -1.69016   0.01043   0.00000   0.00403   0.00404  -1.68612
   D21        0.40315   0.00259   0.00000  -0.00149  -0.00149   0.40166
   D22        2.54111  -0.00416   0.00000  -0.00606  -0.00607   2.53504
   D23       -0.00352  -0.00187   0.00000  -0.00023  -0.00023  -0.00374
   D24        3.13602  -0.00070   0.00000  -0.00005  -0.00004   3.13598
   D25       -3.11674  -0.00185   0.00000   0.00040   0.00041  -3.11634
   D26        0.02280  -0.00069   0.00000   0.00059   0.00059   0.02339
   D27       -1.88558   0.01571   0.00000   0.01149   0.01154  -1.87404
   D28        0.23542   0.00426   0.00000   0.00062   0.00061   0.23603
   D29        2.24286  -0.00784   0.00000  -0.01235  -0.01242   2.23044
   D30        1.22630   0.01561   0.00000   0.01080   0.01086   1.23716
   D31       -2.93588   0.00416   0.00000  -0.00007  -0.00007  -2.93596
   D32       -0.92845  -0.00794   0.00000  -0.01304  -0.01311  -0.94155
   D33        0.00361   0.00005   0.00000   0.00021   0.00021   0.00381
   D34       -3.14046   0.00070   0.00000   0.00041   0.00041  -3.14005
   D35       -3.13594  -0.00111   0.00000   0.00002   0.00002  -3.13591
   D36        0.00319  -0.00047   0.00000   0.00023   0.00023   0.00341
   D37       -1.11178   0.01064   0.00000  -0.00414  -0.00414  -1.11592
   D38        1.18121  -0.00018   0.00000  -0.00292  -0.00291   1.17829
   D39        1.01094   0.00964   0.00000  -0.00188  -0.00190   1.00903
   D40       -2.97926  -0.00117   0.00000  -0.00066  -0.00068  -2.97994
   D41        3.00518   0.00647   0.00000  -0.00543  -0.00541   2.99977
   D42       -0.98502  -0.00435   0.00000  -0.00421  -0.00419  -0.98920
   D43       -1.21377   0.01188   0.00000   0.00185   0.00185  -1.21192
   D44        0.94269   0.01163   0.00000   0.00135   0.00132   0.94401
   D45        2.95257   0.00467   0.00000   0.00042   0.00043   2.95300
   D46        1.20557   0.00597   0.00000  -0.00421  -0.00421   1.20136
   D47       -0.68178   0.00407   0.00000  -0.00580  -0.00581  -0.68759
         Item               Value     Threshold  Converged?
 Maximum Force            0.076015     0.000015     NO 
 RMS     Force            0.012783     0.000010     NO 
 Maximum Displacement     0.020024     0.000060     NO 
 RMS     Displacement     0.004181     0.000040     NO 
 Predicted change in Energy= 9.077267D-04
 GradGradGradGradGradGradGradGradGradGradGradGradGradGradGradGradGradGrad

                          Input orientation:                          
 ---------------------------------------------------------------------
 Center     Atomic      Atomic             Coordinates (Angstroms)
 Number     Number       Type             X           Y           Z
 ---------------------------------------------------------------------
      1          6           0       -5.682761   -1.658158    0.010538
      2          6           0       -4.315336   -1.743681   -0.236690
      3          6           0       -3.515242   -0.583599   -0.297396
      4          6           0       -4.118784    0.671109   -0.103547
      5          6           0       -5.501678    0.746386    0.148097
      6          6           0       -6.281033   -0.406329    0.203174
      7          1           0       -1.906798   -0.852927   -1.678174
      8          1           0       -6.287087   -2.562874    0.056286
      9          1           0       -3.855469   -2.719889   -0.382950
     10          6           0       -2.068732   -0.752768   -0.588202
     11          6           0       -3.371374    1.968896   -0.107910
     12          1           0       -5.969299    1.718446    0.303696
     13          1           0       -7.349497   -0.335891    0.397014
     14          1           0       -3.287639    2.391263    0.914768
     15          8           0       -1.471239    1.842130   -0.843531
     16         16           0       -0.705776    1.082409    0.133150
     17          8           0       -0.725903    1.097498    1.593561
     18          1           0       -3.808082    2.717447   -0.798733
     19          1           0       -1.669413   -1.672591   -0.123142
 ---------------------------------------------------------------------
                    Distance matrix (angstroms):
                    1          2          3          4          5
     1  C    0.000000
     2  C    1.392223   0.000000
     3  C    2.438778   1.410541   0.000000
     4  C    2.807939   2.426431   1.405749   0.000000
     5  C    2.415274   2.784942   2.431718   1.407618   0.000000
     6  C    1.400755   2.417841   2.816309   2.435215   1.392544
     7  H    4.214029   2.944889   2.136861   3.113682   4.337768
     8  H    1.088951   2.155160   3.424288   3.896887   3.402426
     9  H    2.149674   1.088968   2.164904   3.412662   3.873897
    10  C    3.773516   2.480463   1.485119   2.542642   3.817685
    11  C    4.302565   3.832868   2.563559   1.497630   2.469467
    12  H    3.401397   3.874782   3.418058   2.164987   1.089853
    13  H    2.162352   3.404348   3.904495   3.420836   2.155856
    14  H    4.790830   4.413590   3.220395   2.164878   2.862756
    15  O    5.542415   4.616837   3.218753   2.988036   4.292834
    16  S    5.682968   4.599184   3.294549   3.445841   4.807683
    17  O    5.888127   4.930127   3.765928   3.817541   5.002067
    18  H    4.828587   4.524915   3.351715   2.183419   2.765833
    19  H    4.015599   2.649312   2.150198   3.390093   4.539965
                    6          7          8          9         10
     6  C    0.000000
     7  H    4.782557   0.000000
     8  H    2.161550   5.011906   0.000000
     9  H    3.402861   2.993404   2.475954   0.000000
    10  C    4.299974   1.106477   4.635339   2.665355   0.000000
    11  C    3.768897   3.545898   5.391223   4.721726   3.055325
    12  H    2.149873   5.200354   4.300222   4.963726   4.702851
    13  H    1.088187   5.847795   2.490837   4.301166   5.388035
    14  H    4.158520   4.376624   5.854669   5.303807   3.691827
    15  O    5.411587   2.854763   6.588332   5.168046   2.675011
    16  S    5.771026   2.910133   6.666711   4.964312   2.397056
    17  O    5.920653   3.987846   6.832884   5.317257   3.160185
    18  H    4.108196   4.139549   5.895618   5.453415   3.887422
    19  H    4.793426   1.773789   4.706135   2.437862   1.105356
                   11         12         13         14         15
    11  C    0.000000
    12  H    2.642226   0.000000
    13  H    4.625198   2.476682   0.000000
    14  H    1.109628   2.831500   4.919769   0.000000
    15  O    2.041499   4.643702   6.390356   2.586981   0.000000
    16  S    2.819465   5.304555   6.798547   2.998340   1.454996
    17  O    3.263870   5.435304   6.881739   2.949081   2.655074
    18  H    1.108277   2.623778   4.826417   1.820259   2.495801
    19  H    4.019619   5.492753   5.858386   4.495645   3.593257
                   16         17         18         19
    16  S    0.000000
    17  O    1.460628   0.000000
    18  H    3.628506   4.224586   0.000000
    19  H    2.929900   3.392739   4.929783   0.000000
 Symmetry turned off by external request.
 Stoichiometry    C8H8O2S
 Framework group  C1[X(C8H8O2S)]
 Deg. of freedom    51
 Full point group                 C1      NOp   1
 Rotational constants (GHZ):           2.1815852           0.6068554           0.5375262
 Standard basis: VSTO-6G (5D, 7F)
    57 basis functions,   348 primitive gaussians,    58 cartesian basis functions
    29 alpha electrons       29 beta electrons
       nuclear repulsion energy       333.1537958622 Hartrees.
 Integral buffers will be    131072 words long.
 Regular integral format.
 Two-electron integral symmetry is turned off.
 Do NDO integrals.
 One-electron integrals computed using PRISM.
 NBasis=    57 RedAO= F EigKep=  0.00D+00  NBF=    57
 NBsUse=    57 1.00D-04 EigRej=  0.00D+00 NBFU=    57
 Initial guess from the checkpoint file:  "C:\Users\al6323\OneDrive - Imperial College London\Desktop\TSR20251115\Exercise 3\DA reaction\TS_endo_Berny_opt+freq.chk"
 B after Tr=    -0.000104   -0.004495   -0.003767
         Rot=    1.000000    0.000064   -0.000196    0.000240 Ang=   0.04 deg.
 Keep J ints in memory in canonical form, NReq=1859402.
 Overlap will be assumed to be unity.
 Requested convergence on RMS density matrix=1.00D-08 within 128 cycles.
 Requested convergence on MAX density matrix=1.00D-06.
 Requested convergence on             energy=1.00D-06.
 No special actions if energy rises.
 SCF Done:  E(RPM6) =  0.831685415359E-01 A.U. after   17 cycles
            NFock= 16  Conv=0.35D-08     -V/T= 1.0008
 Calling FoFJK, ICntrl=      2127 FMM=F ISym2X=0 I1Cent= 0 IOpClX= 0 NMat=1 NMatS=1 NMatT=0.
 -------------------------------------------------------------------
 Center     Atomic                   Forces (Hartrees/Bohr)
 Number     Number              X              Y              Z
 -------------------------------------------------------------------
      1        6           0.002851006   -0.001124614   -0.000478426
      2        6          -0.005994324   -0.001972513    0.001661592
      3        6           0.028494638    0.004332969   -0.002503538
      4        6           0.021723713    0.009425419   -0.005137927
      5        6          -0.001275077    0.003107823    0.000573406
      6        6           0.000007820    0.002664765    0.000531080
      7        1           0.006068079    0.012267076    0.012814749
      8        1          -0.000260837   -0.000135226   -0.000050662
      9        1           0.000499286    0.000252042   -0.000240340
     10        6           0.004274352    0.006961290    0.013438976
     11        6           0.003796132   -0.005358504   -0.014173028
     12        1          -0.000577605   -0.000314646   -0.000029672
     13        1           0.000338306    0.000206455   -0.000176098
     14        1           0.020260246   -0.004067478   -0.009477921
     15        8          -0.099589641    0.045581902    0.008656737
     16       16           0.003074029   -0.083203101    0.020365776
     17        8          -0.006452076    0.002284809   -0.021151821
     18        1           0.019762351   -0.006640934   -0.004345145
     19        1           0.002999602    0.015732467   -0.000277737
 -------------------------------------------------------------------
 Cartesian Forces:  Max     0.099589641 RMS     0.020295284

 GradGradGradGradGradGradGradGradGradGradGradGradGradGradGradGradGradGrad
 Berny optimization.
 FormGI is forming the generalized inverse of G from B-inverse, IUseBI=4.
 Internal  Forces:  Max     0.073834613 RMS     0.012399043
 Search for a saddle point.
 Step number   3 out of a maximum of  111
 All quantities printed in internal units (Hartrees-Bohrs-Radians)
 Swapping is turned off.
 Update second derivatives using D2CorX and points    1    2    3
 ITU=  0  0  0
     Eigenvalues ---   -0.05222  -0.00907  -0.00245   0.00193   0.00627
     Eigenvalues ---    0.01131   0.01222   0.01518   0.01812   0.01853
     Eigenvalues ---    0.02380   0.02613   0.02771   0.02935   0.02988
     Eigenvalues ---    0.03199   0.03309   0.03842   0.05166   0.05687
     Eigenvalues ---    0.06232   0.07326   0.08074   0.09049   0.09869
     Eigenvalues ---    0.10911   0.11096   0.11212   0.11530   0.13723
     Eigenvalues ---    0.14957   0.15469   0.16086   0.23643   0.23933
     Eigenvalues ---    0.24189   0.24588   0.25324   0.26355   0.26499
     Eigenvalues ---    0.27616   0.28129   0.33958   0.35475   0.36514
     Eigenvalues ---    0.43931   0.48937   0.52105   0.52787   0.53906
     Eigenvalues ---    0.68730
 Eigenvectors required to have negative eigenvalues:
                          R17       R14       R19       D37       D41
   1                    0.85772   0.34724  -0.15400  -0.10851  -0.10216
                          A34       D32       A31       D29       D47
   1                    0.09450  -0.09029  -0.08882  -0.08692  -0.08442
 RFO step:  Lambda0=6.565823654D-02 Lambda=-5.58308755D-02.
 Linear search not attempted -- option 19 set.
 Maximum step size (   0.050) exceeded in Quadratic search.
    -- Step size scaled by   0.058
 Iteration  1 RMS(Cart)=  0.00425054 RMS(Int)=  0.00003651
 Iteration  2 RMS(Cart)=  0.00003056 RMS(Int)=  0.00002527
 Iteration  3 RMS(Cart)=  0.00000000 RMS(Int)=  0.00002527
 Variable       Old X    -DE/DX   Delta X   Delta X   Delta X     New X
                                 (Linear)    (Quad)   (Total)
    R1        2.63092  -0.00144   0.00000  -0.00094  -0.00094   2.62998
    R2        2.64704   0.00185   0.00000   0.00066   0.00066   2.64771
    R3        2.05782   0.00025   0.00000   0.00014   0.00014   2.05796
    R4        2.66554   0.00359   0.00000   0.00146   0.00146   2.66700
    R5        2.05785   0.00002   0.00000   0.00013   0.00013   2.05798
    R6        2.65648   0.00536   0.00000   0.00095   0.00095   2.65743
    R7        2.80647  -0.02067   0.00000  -0.00470  -0.00470   2.80177
    R8        2.66001   0.00068   0.00000   0.00112   0.00112   2.66114
    R9        2.83011  -0.01998   0.00000  -0.00684  -0.00684   2.82327
   R10        2.63153  -0.00199   0.00000  -0.00086  -0.00086   2.63067
   R11        2.05952  -0.00004   0.00000   0.00002   0.00002   2.05954
   R12        2.05638  -0.00035   0.00000  -0.00006  -0.00006   2.05631
   R13        2.09094  -0.01285   0.00000  -0.00275  -0.00275   2.08819
   R14        4.52978  -0.05705   0.00000  -0.00455  -0.00455   4.52523
   R15        2.08882  -0.01213   0.00000  -0.00247  -0.00247   2.08635
   R16        2.09689  -0.00875   0.00000  -0.00203  -0.00203   2.09486
   R17        3.85787  -0.07383   0.00000   0.03952   0.03952   3.89740
   R18        2.09434  -0.00956   0.00000  -0.00253  -0.00253   2.09181
   R19        2.74954   0.04628   0.00000  -0.00087  -0.00087   2.74868
   R20        2.76019  -0.02104   0.00000  -0.00288  -0.00288   2.75731
    A1        2.09303   0.00097   0.00000   0.00015   0.00015   2.09318
    A2        2.09613  -0.00035   0.00000   0.00022   0.00022   2.09635
    A3        2.09402  -0.00062   0.00000  -0.00036  -0.00036   2.09366
    A4        2.11092   0.00075   0.00000   0.00111   0.00111   2.11203
    A5        2.08713   0.00022   0.00000   0.00017   0.00017   2.08729
    A6        2.08513  -0.00098   0.00000  -0.00128  -0.00128   2.08386
    A7        2.07671  -0.00349   0.00000  -0.00183  -0.00182   2.07488
    A8        2.05694   0.00203   0.00000  -0.00016  -0.00015   2.05679
    A9        2.14939   0.00147   0.00000   0.00200   0.00200   2.15139
   A10        2.08769   0.00180   0.00000   0.00069   0.00069   2.08838
   A11        2.16372   0.00567   0.00000   0.00165   0.00164   2.16536
   A12        2.03138  -0.00747   0.00000  -0.00235  -0.00235   2.02904
   A13        2.10905  -0.00054   0.00000   0.00012   0.00012   2.10916
   A14        2.08835   0.00094   0.00000  -0.00011  -0.00010   2.08824
   A15        2.08579  -0.00039   0.00000  -0.00001  -0.00001   2.08578
   A16        2.08897   0.00050   0.00000  -0.00024  -0.00024   2.08873
   A17        2.09637  -0.00002   0.00000  -0.00002  -0.00002   2.09635
   A18        2.09784  -0.00048   0.00000   0.00026   0.00026   2.09810
   A19        1.92383   0.00573   0.00000   0.00505   0.00505   1.92888
   A20        1.99071  -0.00687   0.00000   0.00339   0.00340   1.99411
   A21        1.94365   0.01125   0.00000   0.00340   0.00340   1.94705
   A22        1.85723  -0.00557   0.00000  -0.00889  -0.00890   1.84832
   A23        1.86112   0.00282   0.00000   0.00381   0.00375   1.86487
   A24        1.88081  -0.00765   0.00000  -0.00737  -0.00738   1.87343
   A25        1.94424   0.00819   0.00000   0.00740   0.00732   1.95156
   A26        1.99516  -0.00413   0.00000  -0.00333  -0.00332   1.99185
   A27        1.97192   0.01570   0.00000   0.00984   0.00976   1.98168
   A28        1.86032  -0.01102   0.00000  -0.01070  -0.01069   1.84963
   A29        1.92531   0.00348   0.00000   0.00801   0.00784   1.93315
   A30        1.75594  -0.01554   0.00000  -0.01384  -0.01382   1.74212
   A31        1.85481   0.00002   0.00000  -0.00650  -0.00650   1.84831
   A32        1.46924   0.00769   0.00000   0.00296   0.00298   1.47222
   A33        1.87650  -0.00209   0.00000  -0.00080  -0.00081   1.87569
   A34        2.28964  -0.01222   0.00000   0.00010   0.00009   2.28973
    D1       -0.00018  -0.00008   0.00000  -0.00022  -0.00022  -0.00040
    D2        3.13870  -0.00112   0.00000  -0.00003  -0.00003   3.13868
    D3       -3.13964   0.00047   0.00000  -0.00021  -0.00021  -3.13986
    D4       -0.00076  -0.00057   0.00000  -0.00002  -0.00002  -0.00078
    D5       -0.00184   0.00089   0.00000   0.00001   0.00000  -0.00183
    D6       -3.14116   0.00027   0.00000  -0.00019  -0.00020  -3.14136
    D7        3.13763   0.00034   0.00000   0.00000   0.00000   3.13763
    D8       -0.00170  -0.00028   0.00000  -0.00020  -0.00020  -0.00190
    D9        0.00024  -0.00166   0.00000   0.00020   0.00020   0.00044
   D10       -3.12377  -0.00240   0.00000  -0.00092  -0.00092  -3.12469
   D11       -3.13864  -0.00063   0.00000   0.00001   0.00001  -3.13864
   D12        0.02053  -0.00136   0.00000  -0.00112  -0.00111   0.01942
   D13        0.00169   0.00258   0.00000   0.00003   0.00003   0.00171
   D14        3.11195   0.00230   0.00000  -0.00076  -0.00076   3.11120
   D15        3.12471   0.00336   0.00000   0.00119   0.00119   3.12590
   D16       -0.04820   0.00308   0.00000   0.00040   0.00040  -0.04781
   D17        1.43711   0.01086   0.00000   0.00517   0.00517   1.44228
   D18       -2.75830   0.00317   0.00000  -0.00034  -0.00034  -2.75864
   D19       -0.62492  -0.00337   0.00000  -0.00494  -0.00494  -0.62986
   D20       -1.68612   0.01014   0.00000   0.00404   0.00405  -1.68207
   D21        0.40166   0.00245   0.00000  -0.00147  -0.00147   0.40019
   D22        2.53504  -0.00408   0.00000  -0.00607  -0.00607   2.52897
   D23       -0.00374  -0.00181   0.00000  -0.00024  -0.00024  -0.00398
   D24        3.13598  -0.00068   0.00000  -0.00005  -0.00005   3.13593
   D25       -3.11634  -0.00177   0.00000   0.00042   0.00042  -3.11592
   D26        0.02339  -0.00065   0.00000   0.00061   0.00061   0.02399
   D27       -1.87404   0.01545   0.00000   0.01148   0.01154  -1.86250
   D28        0.23603   0.00417   0.00000   0.00062   0.00061   0.23665
   D29        2.23044  -0.00778   0.00000  -0.01264  -0.01271   2.21773
   D30        1.23716   0.01532   0.00000   0.01077   0.01083   1.24798
   D31       -2.93596   0.00405   0.00000  -0.00010  -0.00010  -2.93606
   D32       -0.94155  -0.00791   0.00000  -0.01335  -0.01342  -0.95497
   D33        0.00381   0.00005   0.00000   0.00022   0.00022   0.00404
   D34       -3.14005   0.00067   0.00000   0.00042   0.00042  -3.13963
   D35       -3.13591  -0.00107   0.00000   0.00004   0.00004  -3.13588
   D36        0.00341  -0.00045   0.00000   0.00023   0.00024   0.00365
   D37       -1.11592   0.01038   0.00000  -0.00413  -0.00413  -1.12005
   D38        1.17829  -0.00030   0.00000  -0.00317  -0.00316   1.17513
   D39        1.00903   0.00937   0.00000  -0.00195  -0.00197   1.00706
   D40       -2.97994  -0.00131   0.00000  -0.00099  -0.00100  -2.98095
   D41        2.99977   0.00636   0.00000  -0.00530  -0.00528   2.99449
   D42       -0.98920  -0.00432   0.00000  -0.00433  -0.00431  -0.99352
   D43       -1.21192   0.01165   0.00000   0.00208   0.00208  -1.20984
   D44        0.94401   0.01126   0.00000   0.00145   0.00142   0.94543
   D45        2.95300   0.00480   0.00000   0.00078   0.00079   2.95379
   D46        1.20136   0.00578   0.00000  -0.00419  -0.00419   1.19717
   D47       -0.68759   0.00396   0.00000  -0.00577  -0.00578  -0.69336
         Item               Value     Threshold  Converged?
 Maximum Force            0.073835     0.000015     NO 
 RMS     Force            0.012399     0.000010     NO 
 Maximum Displacement     0.020317     0.000060     NO 
 RMS     Displacement     0.004253     0.000040     NO 
 Predicted change in Energy= 8.468056D-04
 GradGradGradGradGradGradGradGradGradGradGradGradGradGradGradGradGradGrad

                          Input orientation:                          
 ---------------------------------------------------------------------
 Center     Atomic      Atomic             Coordinates (Angstroms)
 Number     Number       Type             X           Y           Z
 ---------------------------------------------------------------------
      1          6           0       -5.683389   -1.658865    0.010101
      2          6           0       -4.316368   -1.743031   -0.237012
[...]
 3002417,-0.0081506,0.2499297,-0.7767398,-0.0620783,0.0251636,-0.034217
 9,-0.6980004,0.7271679,0.0578437,-0.0050053,0.0201078,0.0823845,-0.086
 6306,0.0017033,-0.0870334,0.5395668,0.139929,-0.0872815,-0.0138985,-0.
 0936479,0.2238414,0.0261973,-0.0149722,0.0252368,0.1541968,0.3210142,-
 0.0028422,-0.023814,-0.0229817,0.0838877,-0.0090227,-0.0269739,-0.0118
 043,0.1571928,-0.0267453,0.0550284,-0.0099513,-0.0034269,0.1374993,0.0
 540333,-0.0239805,0.116943,0.2256575,-0.6711204,0.1487475,0.195097,-0.
 3028777,-0.7088857,-0.0554908,0.2281015,0.3060774,-0.9773954,1.1421023
 ,-0.0200321,-0.0016958,0.4524253,1.4057783,0.0277303,0.1935022,0.05698
 61,1.0913797,-0.8406381,0.0869341,-0.2317717,-0.1469548,-0.7157468,0.1
 615698,-0.4443352,-0.2162267,-0.8106594,0.0136634,0.0001394,0.0731346,
 -0.0400401,0.2008224,-0.0533158,0.0631885,-0.1268094,0.1354955,0.17523
 02,-0.0661524,0.0074515,-0.0693775,0.2581762,-0.0137404,0.002353,-0.10
 5015,0.2150727|Polar=118.676722,7.4982912,111.7299404,-8.6687083,8.442
 0762,49.9875501|HyperPolar=-148.0148701,7.1918214,125.1514727,-8.96906
 21,13.9617903,4.327642,7.4203204,-5.3217325,-40.6027336,-5.2901887|PG=
 C01 [X(C8H8O2S1)]|NImag=1||0.64290495,-0.00889556,0.61164033,-0.071270
 34,0.08166933,0.16517305,-0.32642104,-0.05079196,0.02781971,0.65954815
 ,0.07861791,-0.09602501,-0.01642725,0.01807961,0.58362302,0.04994814,0
 .00156759,-0.07056598,-0.06918253,0.07338770,0.16194367,-0.06000919,-0
 .01785921,0.00593801,-0.15499880,-0.15562163,-0.01405830,0.66178001,-0
 .12456421,0.06357730,0.02739595,-0.03527637,-0.22751972,-0.02293590,-0
 .00321027,0.63101984,-0.01230880,0.01255882,0.00851447,0.00652107,-0.0
 0620059,-0.06668647,-0.06951901,0.08000481,0.18913718,-0.07866212,0.05
 030852,0.01913604,0.09605563,0.03480947,-0.00677873,-0.12426238,0.0120
 8795,0.01029632,0.63344361,0.04708560,-0.03997372,-0.01288481,-0.06697
 724,-0.08548934,-0.00607523,0.13380052,-0.24746740,-0.04979502,0.02653
 997,0.67111104,0.01858499,-0.01333271,-0.00777502,-0.02418453,-0.02022
 963,0.00440209,0.03111068,-0.03287013,-0.07502514,-0.06050316,0.082745
 08,0.18823792,0.09797282,-0.06958574,-0.02464746,-0.09599475,-0.040625
 08,0.00596491,-0.02651265,0.13841547,0.02800480,-0.28908536,-0.0423549
 5,0.02412786,0.62591943,0.03777839,-0.09171898,-0.02201395,-0.04322577
 ,-0.02891493,0.00160342,0.03410978,0.04109783,0.00148787,0.07384102,-0
 .09012269,-0.01482506,0.04754313,0.61726982,-0.00628818,-0.00708484,0.
 00595518,0.00552047,0.00124184,-0.00369514,0.01016733,-0.01301683,0.00
 101841,0.04399664,0.00133209,-0.06936417,-0.05943427,0.07500476,0.1611
 0333,-0.13303620,0.14619713,0.03443664,-0.02845401,0.03666700,0.011136
 99,-0.00707988,-0.01000243,-0.00117741,-0.05815519,-0.02055081,0.00526
 387,-0.17526452,-0.17789718,-0.01492650,0.60913421,0.01531443,-0.26904
 181,-0.03699263,0.14371123,0.03905954,-0.01442371,-0.01235545,-0.11389
 189,-0.01720356,-0.12607668,0.06022549,0.02697942,-0.04919568,-0.25141
 383,-0.02523957,0.02023710,0.64577468,0.01205500,-0.05519094,-0.076287
 88,0.02944238,0.00046159,0.00252864,-0.00158023,-0.01753025,-0.0060222
 4,-0.01278176,0.01230604,0.00885562,0.00708325,-0.00734240,-0.06606744
 ,-0.06178830,0.08369731,0.16278754,0.00033679,0.00001202,-0.00052685,-
 0.00188675,-0.00040576,0.00045781,-0.01660897,0.01268213,0.02689622,-0
 .00150418,-0.00003623,0.00016979,-0.00042850,0.00020272,-0.00075669,0.
 00001998,0.00025293,0.00002687,0.05083743,0.00016957,-0.00011955,0.000
 15964,-0.00078434,-0.00038797,-0.00018157,0.00993496,0.00079181,-0.007
 93595,-0.00014328,0.00008379,0.00010453,0.00015251,-0.00006151,-0.0000
 3284,-0.00021276,-0.00007049,0.00002945,-0.01191956,0.07294047,-0.0000
 2726,-0.00020336,0.00007809,0.00027771,0.00017201,-0.00028620,0.016271
 52,-0.00668562,-0.00956805,-0.00029934,0.00009728,-0.00009767,0.000001
 14,0.00005440,0.00007379,-0.00007915,0.00000200,-0.00001515,-0.0347954
 6,0.08295805,0.21851512,-0.09485592,-0.08657344,-0.00743948,-0.0339528
 3,-0.02438826,0.00131678,-0.00278596,0.00092211,0.00133057,0.00031062,
 -0.00007551,-0.00001561,-0.00063855,0.00110047,0.00100285,0.00694270,0
 .00537888,0.00074730,0.00000313,0.00000882,0.00000294,0.12533941,-0.08
 638434,-0.15829028,-0.00789390,-0.00991163,-0.00028621,0.00038699,-0.0
 0020063,0.00031111,-0.00088513,0.00018759,0.00024002,-0.00003499,0.001
 36075,-0.00215099,-0.00144985,-0.00912382,-0.03913363,-0.00639838,-0.0
 0007114,0.00004738,0.00006858,0.10317088,0.19920695,-0.00740749,-0.007
 86705,-0.04220401,0.00379234,0.00239986,0.00539293,0.00113902,-0.00104
 142,0.00531426,0.00002943,0.00000169,0.00028775,0.00104764,-0.00141384
 ,0.00483462,-0.00173272,-0.00841508,0.00450329,0.00005598,0.00000889,0
 .00004202,0.00349455,0.01568604,0.02578432,-0.02687279,0.02797733,0.00
 930549,-0.06422819,0.06687150,0.01461358,0.00675072,-0.01468261,-0.002
 62507,-0.00132763,-0.00116753,0.00070456,0.00035416,-0.00021143,-0.000
 07455,-0.00306005,-0.00044086,0.00111934,-0.00036683,-0.00062893,0.000
 22805,-0.00076079,0.00031406,-0.00002755,0.09145837,0.01446708,-0.0061
 0546,-0.00402056,0.06681652,-0.18127892,-0.03321575,-0.00123878,-0.037
 88959,-0.00732114,-0.00146149,-0.00207518,-0.00103660,-0.00051060,0.00
 045182,0.00013492,0.00005273,0.00069126,-0.00083517,-0.00046437,0.0000
 8548,0.00025487,-0.00000967,0.00085467,0.00037749,-0.07719562,0.227202
 32,0.00699526,-0.00589925,0.00366065,0.01460399,-0.03322323,-0.0490847
 0,-0.00032596,-0.00545194,0.00504300,0.00065442,-0.00107783,0.00490123
 ,-0.00012573,0.00009336,0.00011134,0.00120381,-0.00076673,0.00523504,0
 .00043936,0.00015702,0.00015999,-0.00008288,0.00033256,-0.00127713,-0.
 02269291,0.04562068,0.03415115,0.00098296,-0.00315303,0.00000649,-0.04
 609365,-0.01654112,0.00447509,-0.22581225,0.02582061,0.02710937,-0.025
 20445,0.01603704,0.00693850,0.00048372,0.00190094,0.00104433,-0.000709
 35,0.00097271,0.00028397,-0.03609479,0.01055951,0.02412667,-0.00030197
 ,0.00044836,0.00005571,-0.00133430,-0.00039415,-0.00015113,0.44702265,
 -0.00143235,-0.00209185,-0.00099786,-0.02426943,0.00168101,0.00256268,
 0.02596997,-0.05737434,-0.00271583,0.02721646,-0.00984485,-0.00631877,
 -0.00030148,-0.00180299,-0.00123352,0.00058936,0.00100278,0.00006633,0
 .00935535,-0.05873706,-0.06308113,-0.00050717,-0.00001171,0.00014588,-
 0.00019325,-0.00160242,0.00008401,-0.04072340,0.37102919,0.00030075,-0
 .00075850,0.00473698,0.00315336,0.00148798,0.00624598,0.02713469,-0.00
 269470,-0.06684409,0.00885061,-0.00476416,0.00292825,0.00066756,-0.001
 53958,0.00529904,0.00021832,0.00001293,0.00010785,0.02244023,-0.066051
 23,-0.18197797,-0.00010766,0.00001307,-0.00043540,-0.00011675,0.000111
 91,-0.00190120,-0.01541611,0.00305838,0.38891588,0.00155884,-0.0002564
 7,-0.00025776,-0.00275467,0.00104639,0.00130557,0.01215433,0.00019425,
 -0.00092494,-0.09190342,-0.08832077,-0.01083549,-0.03716393,-0.0253105
 0,0.00163734,-0.00198555,0.00240235,0.00137801,0.00006031,0.00024755,0
 .00039646,-0.00030189,-0.00033925,-0.00013050,0.00043508,0.00002101,-0
 .00008891,-0.00441348,-0.00203161,-0.00025197,0.24372228,0.00062232,-0
 .00071900,-0.00021296,0.00129946,-0.00139718,-0.00133399,-0.00815563,-
 0.04185357,-0.00692359,-0.07948392,-0.20696723,-0.01387345,-0.02461401
 ,-0.00672630,0.00129093,0.00103913,0.00208728,-0.00063777,0.00005664,0
 .00016538,-0.00024285,0.00001022,-0.00002322,0.00013539,-0.00028276,-0
 .00033498,0.00002137,-0.00159083,-0.00055946,0.00076287,0.07931998,0.4
 6586947,-0.00010751,-0.00009075,0.00001956,0.00134876,-0.00129875,0.00
 493752,-0.00235295,-0.00808437,0.00420997,-0.00932330,-0.01264479,-0.0
 6207607,0.00175659,0.00138788,0.00573112,0.00114501,-0.00082720,0.0046
 7141,0.00038068,-0.00024423,0.00023839,-0.00007068,0.00018396,-0.00078
 193,-0.00014082,-0.00002093,-0.00021387,-0.00017656,0.00082437,-0.0035
 6119,0.01115309,0.02992633,0.22995930,-0.00111821,-0.00161665,0.000648
 55,0.00025774,-0.00011938,-0.00004505,-0.00282919,-0.00067324,0.001010
 90,-0.02672773,0.02693726,0.00911967,-0.06613408,0.06857434,0.01512648
 ,0.00624246,-0.01349048,-0.00236562,-0.00006363,-0.00000066,0.00000742
 ,0.00021053,-0.00020052,-0.00011217,-0.00005018,0.00010620,-0.00008789
 ,-0.00025023,0.00041937,0.00003700,-0.00372443,0.00005271,0.00038285,0
 .09380001,-0.00200687,-0.00172091,-0.00096165,-0.00017722,0.00066428,0
 .00012446,0.00041640,-0.00021406,-0.00099537,0.01304901,-0.00396196,-0
 .00347177,0.06824307,-0.17857975,-0.03289919,0.00037846,-0.03966886,-0
 .00783159,0.00004578,0.00000404,-0.00003957,0.00012339,-0.00039852,-0.
 00002559,0.00010687,-0.00021030,0.00008814,-0.00050165,-0.00005614,0.0
 0014560,-0.00010758,0.00066158,0.00030521,-0.07877221,0.22386118,0.000
 58184,-0.00101586,0.00528020,-0.00005502,0.00011646,0.00010788,0.00119
 743,-0.00084410,0.00495831,0.00674481,-0.00540309,0.00386835,0.0150695
 4,-0.03294505,-0.04941401,0.00000617,-0.00590335,0.00481049,0.00006703
 ,-0.00002472,0.00001491,-0.00005671,0.00001951,-0.00033819,-0.00008772
 ,0.00008818,-0.00078559,-0.00012050,0.00001748,-0.00047996,0.00035546,
 0.00028293,-0.00103679,-0.02329738,0.04527988,0.03411077,-0.02176854,0
 .01494287,0.00634741,0.00005689,0.00103504,0.00088625,-0.00011353,0.00
 032004,0.00010883,-0.00021575,-0.00209138,0.00042749,-0.03066533,-0.01
 304670,0.00277038,-0.21457373,0.01358051,0.02641764,-0.00001982,0.0000
 8325,0.00004849,0.00057700,0.00047322,-0.00015838,-0.00018954,0.000130
 33,0.00000893,0.00055771,-0.00017712,-0.00023611,-0.00036072,-0.000034
 92,0.00001462,0.00032302,-0.00058533,-0.00032709,0.26657641,0.02920301
 ,-0.00979417,-0.00667648,0.00072801,-0.00257735,-0.00142397,-0.0000289
 5,0.00015285,-0.00001682,-0.00134299,-0.00206311,-0.00109468,-0.027234
 05,-0.00397123,0.00220078,0.01343856,-0.03528075,-0.00084131,-0.000020
 51,-0.00000797,-0.00000368,0.00076868,-0.00042108,0.00001678,0.0004481
 5,0.00001040,-0.00001169,0.00000903,0.00003448,0.00016242,-0.00019813,
 0.00010315,0.00008154,-0.00089599,-0.00025523,0.00030488,-0.01468924,0
 .05414822,0.00878613,-0.00469377,0.00347821,0.00083377,-0.00146691,0.0
 0479219,0.00004904,-0.00006518,0.00025692,0.00055565,-0.00099099,0.005
 18451,0.00034427,0.00022789,0.00529482,0.02639307,-0.00086068,-0.04510
 561,0.00011293,-0.00003101,-0.00000835,-0.00010785,0.00005787,-0.00111
 952,0.00006327,0.00003250,-0.00028907,-0.00020436,0.00018828,-0.000862
 23,-0.00001335,0.00005886,-0.00020086,-0.00038024,0.00026172,-0.001212
 29,-0.03632429,0.00729916,0.02970703,0.00006443,-0.00011221,-0.0000180
 6,0.00012336,-0.00033731,0.00049215,-0.00108947,-0.00007892,-0.0004449
 4,0.00089518,-0.01135298,-0.01094654,-0.00065563,-0.00072309,0.0001727
 5,0.00008576,0.00019758,0.00003074,-0.00005816,-0.00001656,-0.00001010
 ,0.00000807,0.00003430,-0.00004517,-0.00004982,-0.00001903,-0.00002459
 ,0.00072167,0.00024070,-0.00004889,-0.01879679,-0.00984915,0.02596595,
 -0.00034575,-0.00014267,-0.00011136,-0.00000051,0.00000992,-0.00003812
 ,0.04266109,0.00028603,-0.00003717,-0.00003975,-0.00000649,-0.00055263
 ,0.00059020,-0.00123130,-0.00035791,0.00011766,-0.00897279,-0.01914295
 ,-0.02257505,-0.00030065,-0.00081424,-0.00037109,0.00003113,0.00010816
 ,0.00061551,0.00002127,-0.00002117,-0.00003524,-0.00004007,-0.00002072
 ,-0.00010318,-0.00004689,-0.00003286,-0.00004448,0.00001688,0.00047381
 ,0.00023471,-0.01153784,-0.05747309,-0.07668524,-0.00015712,0.00016397
 ,-0.00019986,-0.00002991,0.00000470,-0.00003033,-0.00323513,0.08565610
 ,0.00010056,0.00010677,-0.00000876,-0.00011294,0.00010604,-0.00007060,
 0.00027096,0.00038107,-0.00004971,-0.00566775,-0.01047386,-0.00369685,
 -0.00007017,-0.00005165,-0.00020127,0.00008839,-0.00009042,0.00003166,
 0.00001675,-0.00010285,-0.00003453,-0.00004756,-0.00007010,0.00000143,
 0.00003449,-0.00002527,0.00002041,0.00008081,0.00043304,-0.00015806,-0
 .00554480,-0.06668578,-0.18028355,-0.00018521,0.00007550,0.00015671,-0
 .00006039,0.00003258,0.00004610,0.00359088,0.08592357,0.20221378,-0.00
 084127,0.00008995,0.00013434,0.00218894,0.00013170,-0.00042597,-0.0046
 0414,0.00114556,0.00138631,-0.01498967,-0.00350832,0.00739807,-0.00067
 574,-0.00187721,0.00038287,-0.00028726,-0.00070400,-0.00003654,-0.0003
 8210,-0.00004095,-0.00143908,0.00024192,0.00024149,0.00001022,-0.00030
 757,0.00006013,0.00002441,0.01502352,0.00141177,0.00103337,-0.01270398
 ,0.00643270,-0.09327363,0.00031298,-0.00013863,-0.00017377,0.00004918,
 -0.00011011,-0.00009188,0.01925684,-0.00342019,-0.00315836,0.07532857,
 -0.00016513,0.00028852,0.00011829,-0.00062625,-0.00017312,0.00021388,0
 .00372426,-0.00087712,-0.00025821,-0.01033817,0.00119261,0.00347254,-0
 .00008194,-0.00001322,0.00016114,-0.00077633,-0.00020451,-0.00012667,-
 0.00056422,0.00136900,0.00106290,0.00005117,0.00011315,0.00001055,0.00
 006985,0.00026502,-0.00007009,0.00788758,-0.03070523,0.01698166,-0.006
 04820,-0.02432758,0.04446360,-0.00008010,-0.00046156,-0.00005584,0.000
 31120,-0.00003524,-0.00007460,-0.00584730,0.00071730,0.00171001,-0.068
 55808,0.15462583,0.00045494,0.00007572,0.00002164,-0.00010359,0.000078
 93,0.00038072,-0.00089526,0.00076675,-0.00068625,0.00997543,0.00254530
 ,-0.00290978,0.00011122,0.00116425,0.00018719,0.00057130,0.00028115,0.
 00009972,0.00031518,0.00062355,-0.00187145,-0.00016122,-0.00022883,-0.
 00009945,0.00007305,-0.00021728,-0.00023559,-0.00160509,0.00991227,0.0
 0230334,-0.00974040,-0.00588216,0.02734516,-0.00027665,0.00022728,-0.0
 0015359,-0.00022628,0.00012111,-0.00002210,-0.00388332,0.00112542,0.00
 164779,0.12727586,-0.13568807,0.21140274,0.00018987,-0.00052863,-0.000
 13131,-0.00359492,0.00128454,0.00069867,-0.02276429,-0.02534785,-0.000
 63230,-0.00234444,-0.00008170,0.00028583,0.00020112,-0.00010034,-0.000
 13024,0.00055630,0.00051744,-0.00001887,0.00340037,-0.00586121,-0.0025
 9958,-0.00032695,-0.00027282,0.00001100,0.00046786,-0.00009241,-0.0000
 3797,-0.08362266,-0.03604706,0.00080456,-0.06500983,0.03302602,0.02899
 241,0.00003473,0.00043495,0.00010660,-0.00033608,0.00006722,0.00007772
 ,-0.00640408,0.00226484,0.00046140,-0.11401841,0.08690586,-0.09578362,
 0.36879608,-0.00044492,-0.00007911,0.00006613,0.00286612,0.00033864,-0
 .00031535,-0.02580303,-0.00553409,0.00198037,0.00243200,0.00065158,-0.
 00019402,-0.00067572,-0.00191113,-0.00012810,0.00077527,-0.00027713,-0
 .00011823,-0.00698044,-0.01904615,-0.01493949,0.00006634,-0.00006603,-
 0.00003541,-0.00046255,-0.00029087,-0.00003821,-0.04669104,-0.08359542
 ,-0.00207685,0.05517432,-0.00489841,-0.02610617,0.00021727,0.00046776,
 0.00000440,-0.00051314,-0.00002595,0.00004309,0.00359192,-0.00063959,-
 0.00110171,0.07683543,-0.11858840,0.09576182,-0.09419760,0.33055649,-0
 .00011686,0.00007779,-0.00007348,0.00096934,-0.00009532,-0.00029958,-0
 .00070899,0.00191557,0.00429657,0.00071488,0.00015548,-0.00026144,-0.0
 0022881,-0.00020823,-0.00061642,0.00002515,-0.00008239,-0.00023389,-0.
 00753402,-0.01947936,-0.00372209,0.00006892,0.00001169,0.00007960,-0.0
 0010125,-0.00008946,0.00030751,-0.00101579,-0.00355676,-0.03396190,0.0
 3277926,-0.02302597,0.09439738,0.00006918,-0.00002554,0.00025107,-0.00
 002160,-0.00003766,0.00013622,-0.01249169,0.00187623,0.00363362,-0.026
 07360,0.05141963,-0.12298196,-0.03175281,0.02579861,0.26511860,-0.0009
 3454,0.00007483,0.00015802,0.00216722,0.00002483,-0.00007188,-0.004238
 88,0.00111932,-0.00001655,-0.01922428,-0.00194570,-0.00395820,-0.00084
 172,-0.00192370,-0.00080543,-0.00046292,-0.00076253,-0.00006440,-0.001
 15798,-0.00169762,-0.00104526,0.00027159,0.00030632,-0.00000976,-0.000
 31709,0.00013338,0.00004940,0.01426346,-0.00144468,-0.00596041,0.01595
 221,-0.02518126,0.09106304,0.00038197,-0.00022790,-0.00005139,0.000133
 45,-0.00015451,0.00000022,-0.04413982,0.02521623,0.01513343,0.07988170
 ,-0.02944841,-0.04683952,-0.07815467,0.04037736,0.02652269,0.01732404,
 -0.00006337,0.00032300,-0.00000304,-0.00059371,-0.00004830,-0.00018189
 ,0.00298731,-0.00049161,-0.00060464,-0.00754730,0.00224014,0.00007350,
 -0.00011732,0.00033829,-0.00009807,-0.00052161,-0.00018014,0.00018542,
 -0.00185794,-0.00291195,0.00087997,0.00001425,0.00003384,0.00003228,0.
 00011894,0.00012901,0.00016802,0.00169597,-0.01842617,-0.02567126,-0.0
 2260804,-0.00842948,-0.04786215,-0.00013339,-0.00039055,0.00002072,0.0
 0023585,-0.00001544,0.00001569,0.02832696,-0.01320809,-0.00954586,-0.0
 3139194,0.03200297,0.04026866,0.03853434,-0.06850619,-0.04388524,-0.00
 044041,0.07481618,-0.00023016,-0.00001508,0.00007989,-0.00062945,-0.00
 023837,0.00027759,0.00302444,-0.00101061,-0.00143640,-0.00866210,-0.00
 072772,0.00027406,0.00008224,-0.00060043,0.00000126,-0.00064349,-0.000
 19906,0.00025122,-0.00106222,-0.00062175,0.00127312,0.00007928,0.00020
 461,-0.00004986,-0.00000006,0.00031431,-0.00009020,-0.00167716,-0.0172
 6515,-0.00921636,0.00583637,0.00110554,-0.01720883,0.00007786,-0.00024
 154,-0.00029364,0.00027343,-0.00006718,-0.00012620,0.00188934,-0.00113
 487,-0.00009390,-0.01990580,0.02111695,-0.11284651,0.09763835,-0.08708
 204,-0.20892747,-0.07175564,0.08586606,0.34921900,0.00004482,-0.000133
 72,-0.00004258,-0.00001190,-0.00018094,-0.00063409,-0.00103391,-0.0003
 6921,0.00062125,0.00428436,-0.01188548,0.00614268,-0.00068959,-0.00064
 182,-0.00025286,0.00005520,0.00022566,0.00001088,-0.00002802,-0.000103
 05,0.00008019,0.00003306,0.00003286,0.00005568,-0.00004943,-0.00002519
 ,0.00003968,0.00065442,0.00016316,-0.00013862,-0.03465891,0.02711999,-
 0.05654301,-0.00024520,-0.00020627,0.00017151,0.00002703,-0.00001470,0
 .00004228,0.00777429,0.00113424,-0.00494597,-0.04286073,0.02611212,0.0
 1993749,-0.00236695,-0.00097703,0.01456875,0.01934023,-0.00618910,-0.0
 0333019,0.04978723,0.00030507,-0.00000455,-0.00004539,-0.00020623,-0.0
 0029469,-0.00065904,-0.00111201,-0.00023169,0.00015924,-0.00479525,-0.
 02875266,0.01643441,-0.00025275,-0.00092113,0.00019263,-0.00009370,0.0
 0027306,-0.00052800,0.00000022,-0.00007402,-0.00005042,-0.00002663,-0.
 00007330,0.00009055,-0.00002615,-0.00005137,0.00002934,0.00005493,0.00
 062414,0.00002336,0.01796045,-0.11522544,0.09664001,-0.00017048,0.0001
 0664,0.00024538,-0.00004145,0.00000745,0.00003169,-0.00059841,0.005243
 13,-0.00056164,0.02537915,-0.01262084,-0.01083408,0.00125486,0.0001148
 4,-0.00295997,-0.00359503,0.00122668,-0.00007745,-0.03406789,0.1507186
 0,-0.00001773,-0.00007584,-0.00002174,0.00002288,-0.00013261,-0.000193
 16,-0.00041871,-0.00036729,-0.00023173,0.00248386,0.00564995,0.0025236
 2,0.00012869,-0.00001402,-0.00005994,-0.00012979,0.00011071,-0.0001027
 5,0.00002441,0.00002855,0.00008607,0.00003519,0.00003891,0.00002900,-0
 .00002432,0.00000615,0.00003853,-0.00032508,-0.00022099,-0.00024129,-0
 .02688684,0.08513195,-0.10666845,0.00024896,-0.00002698,0.00011348,0.0
 0005312,-0.00004045,0.00001579,-0.00400618,0.01074461,-0.02325573,0.00
 603609,-0.00295786,-0.00196120,0.00176994,0.00014378,-0.00115776,-0.00
 319689,0.00003631,0.00105540,0.02419720,-0.09814783,0.13002437,0.00046
 782,-0.00009774,0.00040208,-0.00201117,-0.00035035,-0.00009864,-0.0259
 4031,0.02150141,-0.01563756,-0.00137893,-0.00005295,0.00017016,-0.0001
 8450,-0.00009498,0.00084607,0.00003203,0.00023841,0.00004183,0.0039420
 4,0.00025251,-0.00114517,-0.00001275,-0.00006565,-0.00006744,-0.000552
 09,-0.00037606,-0.00040124,-0.05587434,0.04176075,-0.04236402,-0.00010
 638,0.00021313,-0.00021444,-0.00007426,0.00006826,-0.00001931,-0.00005
 702,0.00001636,-0.00009816,-0.00005103,0.00000789,0.00001556,-0.000610
 96,-0.00252907,0.00079980,0.00529492,-0.00558827,0.00432671,-0.0002427
 7,-0.00045008,-0.00100373,-0.00005625,0.00003152,0.00000505,0.07741618
 ,0.00011180,-0.00011154,-0.00024062,-0.00065859,-0.00042308,0.00030925
 ,0.01587369,-0.00324256,0.00454802,-0.00030484,0.00011386,0.00004797,0
 .00012992,-0.00003715,-0.00000589,-0.00022632,-0.00005371,0.00002027,-
 0.00030922,0.00595079,-0.00026914,0.0000