 Default is to use a total of   8 processors:
                                8 via shared-memory
                                1 via Linda
 Entering Link 1 = C:\G16W\l1.exe PID=     11576.
  
 Copyright (c) 1988-2019, Gaussian, Inc.  All Rights Reserved.
  
 This is part of the Gaussian(R) 16 program.  It is based on
 the Gaussian(R) 09 system (copyright 2009, Gaussian, Inc.),
 the Gaussian(R) 03 system (copyright 2003, Gaussian, Inc.),
 the Gaussian(R) 98 system (copyright 1998, Gaussian, Inc.),
 the Gaussian(R) 94 system (copyright 1995, Gaussian, Inc.),
 the Gaussian 92(TM) system (copyright 1992, Gaussian, Inc.),
 the Gaussian 90(TM) system (copyright 1990, Gaussian, Inc.),
 the Gaussian 88(TM) system (copyright 1988, Gaussian, Inc.),
 the Gaussian 86(TM) system (copyright 1986, Carnegie Mellon
 University), and the Gaussian 82(TM) system (copyright 1983,
 Carnegie Mellon University). Gaussian is a federally registered
 trademark of Gaussian, Inc.
  
 This software contains proprietary and confidential information,
 including trade secrets, belonging to Gaussian, Inc.
  
 This software is provided under written license and may be
 used, copied, transmitted, or stored only in accord with that
 written license.
  
 The following legend is applicable only to US Government
 contracts under FAR:
  
                    RESTRICTED RIGHTS LEGEND
  
 Use, reproduction and disclosure by the US Government is
 subject to restrictions as set forth in subparagraphs (a)
 and (c) of the Commercial Computer Software - Restricted
 Rights clause in FAR 52.227-19.
  
 Gaussian, Inc.
 340 Quinnipiac St., Bldg. 40, Wallingford CT 06492
  
  
 ---------------------------------------------------------------
 Warning -- This program may not be used in any manner that
 competes with the business of Gaussian, Inc. or will provide
 assistance to any competitor of Gaussian, Inc.  The licensee
 of this program is prohibited from giving any competitor of
 Gaussian, Inc. access to this program.  By using this program,
 the user acknowledges that Gaussian, Inc. is engaged in the
 business of creating and licensing software in the field of
 computational chemistry and represents and warrants to the
 licensee that it is not a competitor of Gaussian, Inc. and that
 it will not use this program in any manner prohibited above.
 ---------------------------------------------------------------
  

 Cite this work as:
 Gaussian 16, Revision C.01,
 M. J. Frisch, G. W. Trucks, H. B. Schlegel, G. E. Scuseria, 
 M. A. Robb, J. R. Cheeseman, G. Scalmani, V. Barone, 
 G. A. Petersson, H. Nakatsuji, X. Li, M. Caricato, A. V. Marenich, 
 J. Bloino, B. G. Janesko, R. Gomperts, B. Mennucci, H. P. Hratchian, 
 J. V. Ortiz, A. F. Izmaylov, J. L. Sonnenberg, D. Williams-Young, 
 F. Ding, F. Lipparini, F. Egidi, J. Goings, B. Peng, A. Petrone, 
 T. Henderson, D. Ranasinghe, V. G. Zakrzewski, J. Gao, N. Rega, 
 G. Zheng, W. Liang, M. Hada, M. Ehara, K. Toyota, R. Fukuda, 
 J. Hasegawa, M. Ishida, T. Nakajima, Y. Honda, O. Kitao, H. Nakai, 
 T. Vreven, K. Throssell, J. A. Montgomery, Jr., J. E. Peralta, 
 F. Ogliaro, M. J. Bearpark, J. J. Heyd, E. N. Brothers, K. N. Kudin, 
 V. N. Staroverov, T. A. Keith, R. Kobayashi, J. Normand, 
 K. Raghavachari, A. P. Rendell, J. C. Burant, S. S. Iyengar, 
 J. Tomasi, M. Cossi, J. M. Millam, M. Klene, C. Adamo, R. Cammi, 
 J. W. Ochterski, R. L. Martin, K. Morokuma, O. Farkas, 
 J. B. Foresman, and D. J. Fox, Gaussian, Inc., Wallingford CT, 2019.
 
 ******************************************
 Gaussian 16:  EM64W-G16RevC.01 30-May-2019
                15-Nov-2025 
 ******************************************
 %chk=C:\Users\al6323\OneDrive - Imperial College London\Desktop\TSR20251115\Exer
 cise 3\DA reaction\TS_exo_Berny_IRC.chk
 Default route: MaxDisk=10GB
 ----------------------------------------------------------------------
 # irc=(calcall,maxpoints=100) rpm6 nosymm geom=connectivity scf=(tight
 ,xqc)
 ----------------------------------------------------------------------
 1/10=4,18=10,26=1,38=1,42=100,44=3,57=2,71=1,172=1/1,23;
 2/12=2,15=1,17=6,18=5,29=1,40=1/2;
 3/5=2,25=1,41=3900000,71=2,116=1,140=1/1,2,3;
 4/35=1/1;
 5/5=2,8=3,13=1,32=2,35=1,38=5/2,8;
 8/6=4,10=90,11=11/1;
 11/6=1,8=1,9=11,15=111,16=1,31=1/1,2,10;
 10/6=1,13=1,31=1/2;
 6/7=2,8=2,9=2,10=2,18=1,28=1/1;
 7/10=1,25=1,30=1/1,2,3,16;
 1/10=4,18=10,26=1,42=100,44=3,71=1/23(2);
 2/15=1,29=1/2;
 99/5=20/99;
 2/15=1,29=1/2;
 3/5=2,25=1,41=3900000,71=2,116=1,135=20,140=1/1,2,3;
 4/5=5,16=3,35=1/1;
 5/5=2,8=3,13=1,32=2,35=1,38=5/2,8;
 8/6=4,10=90,11=11/1;
 11/6=1,8=1,9=11,15=111,16=1,31=1/1,2,10;
 10/6=1,13=1,31=1/2;
 7/10=1,25=1,30=1/1,2,3,16;
 1/10=4,18=10,26=1,42=100,44=3,71=1/23(-8);
 2/15=1,29=1/2;
 6/7=2,8=2,9=2,10=2,18=1,19=2,28=1/1;
 99/5=20/99;
 -------------------
 Title Card Required
 -------------------
 Symbolic Z-matrix:
 Charge =  0 Multiplicity = 1
 C                    -4.4449   -1.5113    0.74048 
 C                    -3.13027  -1.56013   0.41897 
 C                    -2.37812  -0.35272   0.08538 
 C                    -3.09321   0.91891   0.12294 
 C                    -4.50058   0.90619   0.50634 
 C                    -5.15041  -0.24773   0.78911 
 H                    -0.4724    0.34267  -0.6664 
 H                    -5.00913  -2.41492   0.9719 
 H                    -2.59078  -2.50558   0.37946 
 C                    -1.02128  -0.40921  -0.10891 
 C                    -2.42771   2.1058   -0.04071 
 H                    -5.01186   1.86877   0.54525 
 H                    -6.20398  -0.26238   1.05891 
 H                    -2.88492   3.05982   0.1946 
 S                    -0.34616   0.75109   1.81886 
 O                     1.07022   0.66635   1.65929 
 O                    -1.21539   1.90183   1.63408 
 H                    -1.46929   2.19989  -0.53817 
 H                    -0.47479  -1.34207  -0.05295 
 
 IRC-IRC-IRC-IRC-IRC-IRC-IRC-IRC-IRC-IRC-IRC-IRC-IRC-IRC-IRC-IRC-IRC-IRC
 ------------------------------------------------------------------------
 INPUT DATA FOR L123
 ------------------------------------------------------------------------
 GENERAL PARAMETERS:
 Follow reaction path in both directions.
 Maximum points per path      = 100
 Step size                    =   0.100 bohr
 Integration scheme           = HPC                                 
    Redo corrector integration= Yes                                 
    DWI Weight Power          =  2
    DWI will use Hessian update vectors when possible.
    Max correction cycles     =  20
 Initial Hessian              = CalcFC
 Hessian evaluation           = Analytic at all predictor steps
                              = Update at all corrector steps
 Hessian updating method      = Bofill                              
 ------------------------------------------------------------------------
 IRC-IRC-IRC-IRC-IRC-IRC-IRC-IRC-IRC-IRC-IRC-IRC-IRC-IRC-IRC-IRC-IRC-IRC
                          Input orientation:                          
 ---------------------------------------------------------------------
 Center     Atomic      Atomic             Coordinates (Angstroms)
 Number     Number       Type             X           Y           Z
 ---------------------------------------------------------------------
      1          6           0       -4.444898   -1.511302    0.740480
      2          6           0       -3.130268   -1.560129    0.418967
      3          6           0       -2.378118   -0.352723    0.085378
      4          6           0       -3.093206    0.918915    0.122938
      5          6           0       -4.500576    0.906190    0.506335
      6          6           0       -5.150409   -0.247734    0.789106
      7          1           0       -0.472404    0.342667   -0.666398
      8          1           0       -5.009134   -2.414924    0.971905
      9          1           0       -2.590784   -2.505578    0.379460
     10          6           0       -1.021281   -0.409212   -0.108910
     11          6           0       -2.427707    2.105796   -0.040709
     12          1           0       -5.011863    1.868772    0.545255
     13          1           0       -6.203984   -0.262384    1.058905
     14          1           0       -2.884925    3.059820    0.194596
     15         16           0       -0.346164    0.751091    1.818859
     16          8           0        1.070224    0.666348    1.659285
     17          8           0       -1.215391    1.901835    1.634080
     18          1           0       -1.469294    2.199895   -0.538168
     19          1           0       -0.474786   -1.342067   -0.052946
 ---------------------------------------------------------------------
                    Distance matrix (angstroms):
                    1          2          3          4          5
     1  C    0.000000
     2  C    1.354255   0.000000
     3  C    2.458260   1.461109   0.000000
     4  C    2.848576   2.496932   1.459392   0.000000
     5  C    2.429442   2.822784   2.503376   1.458714   0.000000
     6  C    1.448004   2.437285   2.862141   2.457018   1.354172
     7  H    4.604043   3.444255   2.163442   2.797090   4.233087
     8  H    1.090162   2.136949   3.458445   3.937767   3.391929
     9  H    2.134633   1.089255   2.183230   3.470646   3.911976
    10  C    3.695567   2.459896   1.371841   2.471952   3.770186
    11  C    4.214584   3.760838   2.462250   1.370531   2.456644
    12  H    3.432850   3.913274   3.476080   2.182160   1.090639
    13  H    2.180728   3.397263   3.948818   3.456652   2.138340
    14  H    4.860726   4.631897   3.451700   2.152206   2.710283
    15  S    4.804262   3.879777   2.890017   3.232731   4.359576
    16  O    6.000244   4.913219   3.925143   4.445030   5.693911
    17  O    4.783068   4.138653   2.972111   2.603050   3.613248
    18  H    4.925661   4.220512   2.780401   2.171419   3.457358
    19  H    4.052154   2.705889   2.149560   3.463971   4.644828
                    6          7          8          9         10
     6  C    0.000000
     7  H    4.934652   0.000000
     8  H    2.179469   5.556101   0.000000
     9  H    3.437638   3.700520   2.491511   0.000000
    10  C    4.228736   1.085072   4.592822   2.663943   0.000000
    11  C    3.693346   2.706163   5.303401   4.633347   2.882351
    12  H    2.135006   4.940018   4.304890   5.002404   4.641323
    13  H    1.087670   6.016125   2.463465   4.306829   5.314674
    14  H    4.052872   3.734231   5.923621   5.576230   3.949616
    15  S    5.013862   2.521755   5.699497   4.209047   2.349122
    16  O    6.347364   2.809497   6.850205   5.010194   2.942402
    17  O    4.562784   2.876670   5.784926   4.784461   2.901143
    18  H    4.615533   2.111759   6.008938   4.923540   2.681868
    19  H    4.875250   1.792947   4.770917   2.453198   1.082593
                   11         12         13         14         15
    11  C    0.000000
    12  H    2.660338   0.000000
    13  H    4.591046   2.495359   0.000000
    14  H    1.083780   2.462808   4.774958   0.000000
    15  S    3.102585   4.963871   5.993222   3.796546   0.000000
    16  O    4.146988   6.299100   7.357791   4.849456   1.427865
    17  O    2.077554   3.949663   5.468156   2.490058   1.453929
    18  H    1.083916   3.719306   5.570525   1.811194   2.985972
    19  H    3.962550   5.590384   5.935118   5.024605   2.810961
                   16         17         18         19
    16  O    0.000000
    17  O    2.598287   0.000000
    18  H    3.691845   2.207253   0.000000
    19  H    3.058189   3.730610   3.710792   0.000000
 Symmetry turned off by external request.
 Stoichiometry    C8H8O2S
 Framework group  C1[X(C8H8O2S)]
 Deg. of freedom    51
 Full point group                 C1      NOp   1
 Rotational constants (GHZ):           2.0112733           0.6908537           0.5919415
 Standard basis: VSTO-6G (5D, 7F)
    57 basis functions,   348 primitive gaussians,    58 cartesian basis functions
    29 alpha electrons       29 beta electrons
       nuclear repulsion energy       337.3149203403 Hartrees.
 Integral buffers will be    131072 words long.
 Regular integral format.
 Two-electron integral symmetry is turned off.
 Do NDO integrals.
 One-electron integrals computed using PRISM.
 NBasis=    57 RedAO= F EigKep=  0.00D+00  NBF=    57
 NBsUse=    57 1.00D-04 EigRej=  0.00D+00 NBFU=    57
 Nonelectrostatic core Hamiltonian diagonalized for initial guess.
 Keep J ints in memory in canonical form, NReq=1859402.
 Overlap will be assumed to be unity.
 Requested convergence on RMS density matrix=1.00D-08 within  32 cycles.
 Requested convergence on MAX density matrix=1.00D-06.
 Requested convergence on             energy=1.00D-06.
 No special actions if energy rises.
 SCF Done:  E(RPM6) = -0.372868926689E-02 A.U. after   22 cycles
            NFock= 21  Conv=0.36D-08     -V/T= 1.0000
 QCSCF skips out because SCF is already converged.
 Range of M.O.s used for correlation:     1    57
 NBasis=    57 NAE=    29 NBE=    29 NFC=     0 NFV=     0
 NROrb=     57 NOA=    29 NOB=    29 NVA=    28 NVB=    28
 Symmetrizing basis deriv contribution to polar:
 IMax=3 JMax=2 DiffMx= 0.00D+00
 G2DrvN: will do    20 centers at a time, making    1 passes.
 Calling FoFCou, ICntrl=  3107 FMM=F I1Cent=   0 AccDes= 0.00D+00.
 End of G2Drv F.D. properties file   721 does not exist.
 End of G2Drv F.D. properties file   722 does not exist.
 End of G2Drv F.D. properties file   788 does not exist.
          IDoAtm=1111111111111111111
          Differentiating once with respect to nuclear coordinates.
          Electric field/nuclear overlap derivatives assumed to be zero.
 Keep J ints in memory in canonical form, NReq=1861376.
          There are    60 degrees of freedom in the 1st order CPHF.  IDoFFX=5 NUNeed=    60.
 LinEq1:  Iter=  0 NonCon=    57 RMS=1.41D-02 Max=1.28D-01 NDo=    57
 AX will form    60 AO Fock derivatives at one time.
 LinEq1:  Iter=  1 NonCon=    57 RMS=6.15D-03 Max=9.60D-02 NDo=    60
 LinEq1:  Iter=  2 NonCon=    57 RMS=1.23D-03 Max=8.94D-03 NDo=    60
 LinEq1:  Iter=  3 NonCon=    57 RMS=3.10D-04 Max=5.02D-03 NDo=    60
 LinEq1:  Iter=  4 NonCon=    57 RMS=8.80D-05 Max=5.92D-04 NDo=    60
 LinEq1:  Iter=  5 NonCon=    57 RMS=3.25D-05 Max=2.79D-04 NDo=    60
 LinEq1:  Iter=  6 NonCon=    57 RMS=9.68D-06 Max=7.99D-05 NDo=    60
 LinEq1:  Iter=  7 NonCon=    57 RMS=2.47D-06 Max=2.34D-05 NDo=    60
 LinEq1:  Iter=  8 NonCon=    57 RMS=6.36D-07 Max=7.27D-06 NDo=    60
 LinEq1:  Iter=  9 NonCon=    45 RMS=1.66D-07 Max=1.53D-06 NDo=    60
 LinEq1:  Iter= 10 NonCon=    20 RMS=2.97D-08 Max=2.26D-07 NDo=    45
 LinEq1:  Iter= 11 NonCon=     0 RMS=4.72D-09 Max=4.82D-08 NDo=    20
 Linear equations converged to 1.000D-08 1.000D-07 after    11 iterations.
 End of Minotr F.D. properties file   721 does not exist.
 End of Minotr F.D. properties file   722 does not exist.
 End of Minotr F.D. properties file   788 does not exist.

 **********************************************************************

            Population analysis using the SCF Density.

 **********************************************************************

 Alpha  occ. eigenvalues --   -1.16874  -1.10167  -1.08057  -1.01845  -0.99243
 Alpha  occ. eigenvalues --   -0.90568  -0.84890  -0.77589  -0.74767  -0.71678
 Alpha  occ. eigenvalues --   -0.63686  -0.61353  -0.59376  -0.56141  -0.54490
 Alpha  occ. eigenvalues --   -0.54017  -0.53152  -0.51863  -0.51312  -0.49681
 Alpha  occ. eigenvalues --   -0.48166  -0.45780  -0.44367  -0.43621  -0.42762
 Alpha  occ. eigenvalues --   -0.40141  -0.38039  -0.34388  -0.31284
 Alpha virt. eigenvalues --   -0.03882  -0.01312   0.02282   0.03064   0.04073
 Alpha virt. eigenvalues --    0.08866   0.10092   0.13864   0.14011   0.15606
 Alpha virt. eigenvalues --    0.16549   0.17959   0.18551   0.18986   0.20315
 Alpha virt. eigenvalues --    0.20569   0.20984   0.21088   0.21236   0.21970
 Alpha virt. eigenvalues --    0.22123   0.22269   0.23445   0.27922   0.28862
 Alpha virt. eigenvalues --    0.29452   0.29986   0.33107
          Condensed to atoms (all electrons):
               1          2          3          4          5          6
     1  C    4.055108   0.000000   0.000000   0.000000   0.000000   0.000000
     2  C    0.000000   4.259788   0.000000   0.000000   0.000000   0.000000
     3  C    0.000000   0.000000   3.795504   0.000000   0.000000   0.000000
     4  C    0.000000   0.000000   0.000000   4.142526   0.000000   0.000000
     5  C    0.000000   0.000000   0.000000   0.000000   4.069787   0.000000
     6  C    0.000000   0.000000   0.000000   0.000000   0.000000   4.221133
     7  H    0.000000   0.000000   0.000000   0.000000   0.000000   0.000000
     8  H    0.000000   0.000000   0.000000   0.000000   0.000000   0.000000
     9  H    0.000000   0.000000   0.000000   0.000000   0.000000   0.000000
    10  C    0.000000   0.000000   0.000000   0.000000   0.000000   0.000000
    11  C    0.000000   0.000000   0.000000   0.000000   0.000000   0.000000
    12  H    0.000000   0.000000   0.000000   0.000000   0.000000   0.000000
    13  H    0.000000   0.000000   0.000000   0.000000   0.000000   0.000000
    14  H    0.000000   0.000000   0.000000   0.000000   0.000000   0.000000
    15  S    0.000000   0.000000   0.000000   0.000000   0.000000   0.000000
    16  O    0.000000   0.000000   0.000000   0.000000   0.000000   0.000000
    17  O    0.000000   0.000000   0.000000   0.000000   0.000000   0.000000
    18  H    0.000000   0.000000   0.000000   0.000000   0.000000   0.000000
    19  H    0.000000   0.000000   0.000000   0.000000   0.000000   0.000000
               7          8          9         10         11         12
     1  C    0.000000   0.000000   0.000000   0.000000   0.000000   0.000000
     2  C    0.000000   0.000000   0.000000   0.000000   0.000000   0.000000
     3  C    0.000000   0.000000   0.000000   0.000000   0.000000   0.000000
     4  C    0.000000   0.000000   0.000000   0.000000   0.000000   0.000000
     5  C    0.000000   0.000000   0.000000   0.000000   0.000000   0.000000
     6  C    0.000000   0.000000   0.000000   0.000000   0.000000   0.000000
     7  H    0.821419   0.000000   0.000000   0.000000   0.000000   0.000000
     8  H    0.000000   0.858727   0.000000   0.000000   0.000000   0.000000
     9  H    0.000000   0.000000   0.839414   0.000000   0.000000   0.000000
    10  C    0.000000   0.000000   0.000000   4.543433   0.000000   0.000000
    11  C    0.000000   0.000000   0.000000   0.000000   4.089193   0.000000
    12  H    0.000000   0.000000   0.000000   0.000000   0.000000   0.856677
    13  H    0.000000   0.000000   0.000000   0.000000   0.000000   0.000000
    14  H    0.000000   0.000000   0.000000   0.000000   0.000000   0.000000
    15  S    0.000000   0.000000   0.000000   0.000000   0.000000   0.000000
    16  O    0.000000   0.000000   0.000000   0.000000   0.000000   0.000000
    17  O    0.000000   0.000000   0.000000   0.000000   0.000000   0.000000
    18  H    0.000000   0.000000   0.000000   0.000000   0.000000   0.000000
    19  H    0.000000   0.000000   0.000000   0.000000   0.000000   0.000000
              13         14         15         16         17         18
     1  C    0.000000   0.000000   0.000000   0.000000   0.000000   0.000000
     2  C    0.000000   0.000000   0.000000   0.000000   0.000000   0.000000
     3  C    0.000000   0.000000   0.000000   0.000000   0.000000   0.000000
     4  C    0.000000   0.000000   0.000000   0.000000   0.000000   0.000000
     5  C    0.000000   0.000000   0.000000   0.000000   0.000000   0.000000
     6  C    0.000000   0.000000   0.000000   0.000000   0.000000   0.000000
     7  H    0.000000   0.000000   0.000000   0.000000   0.000000   0.000000
     8  H    0.000000   0.000000   0.000000   0.000000   0.000000   0.000000
     9  H    0.000000   0.000000   0.000000   0.000000   0.000000   0.000000
    10  C    0.000000   0.000000   0.000000   0.000000   0.000000   0.000000
    11  C    0.000000   0.000000   0.000000   0.000000   0.000000   0.000000
    12  H    0.000000   0.000000   0.000000   0.000000   0.000000   0.000000
    13  H    0.845514   0.000000   0.000000   0.000000   0.000000   0.000000
    14  H    0.000000   0.852236   0.000000   0.000000   0.000000   0.000000
    15  S    0.000000   0.000000   4.801861   0.000000   0.000000   0.000000
    16  O    0.000000   0.000000   0.000000   6.633167   0.000000   0.000000
    17  O    0.000000   0.000000   0.000000   0.000000   6.638801   0.000000
    18  H    0.000000   0.000000   0.000000   0.000000   0.000000   0.852402
    19  H    0.000000   0.000000   0.000000   0.000000   0.000000   0.000000
              19
     1  C    0.000000
     2  C    0.000000
     3  C    0.000000
     4  C    0.000000
     5  C    0.000000
     6  C    0.000000
     7  H    0.000000
     8  H    0.000000
     9  H    0.000000
    10  C    0.000000
    11  C    0.000000
    12  H    0.000000
    13  H    0.000000
    14  H    0.000000
    15  S    0.000000
    16  O    0.000000
    17  O    0.000000
    18  H    0.000000
    19  H    0.823308
 Mulliken charges:
               1
     1  C   -0.055108
     2  C   -0.259788
     3  C    0.204496
     4  C   -0.142526
     5  C   -0.069787
     6  C   -0.221133
     7  H    0.178581
     8  H    0.141273
     9  H    0.160586
    10  C   -0.543433
    11  C   -0.089193
    12  H    0.143323
    13  H    0.154486
    14  H    0.147764
    15  S    1.198139
    16  O   -0.633167
    17  O   -0.638801
    18  H    0.147598
    19  H    0.176692
 Sum of Mulliken charges =   0.00000
 Mulliken charges with hydrogens summed into heavy atoms:
               1
     1  C    0.086165
     2  C   -0.099202
     3  C    0.204496
     4  C   -0.142526
     5  C    0.073536
     6  C   -0.066648
    10  C   -0.188161
    11  C    0.206169
    15  S    1.198139
    16  O   -0.633167
    17  O   -0.638801
 APT charges:
               1
     1  C   -0.055108
     2  C   -0.259788
     3  C    0.204496
     4  C   -0.142526
     5  C   -0.069787
     6  C   -0.221133
     7  H    0.178581
     8  H    0.141273
     9  H    0.160586
    10  C   -0.543433
    11  C   -0.089193
    12  H    0.143323
    13  H    0.154486
    14  H    0.147764
    15  S    1.198139
    16  O   -0.633167
    17  O   -0.638801
    18  H    0.147598
    19  H    0.176692
 Sum of APT charges =   0.00000
 APT charges with hydrogens summed into heavy atoms:
               1
     1  C    0.086165
     2  C   -0.099202
     3  C    0.204496
     4  C   -0.142526
     5  C    0.073536
     6  C   -0.066648
    10  C   -0.188161
    11  C    0.206169
    15  S    1.198139
    16  O   -0.633167
    17  O   -0.638801
 Charge=              0.0000 electrons
 Dipole moment (field-independent basis, Debye):
    X=             -2.6752    Y=             -0.6578    Z=             -0.2602  Tot=              2.7671
 N-N= 3.373149203403D+02 E-N=-5.275862512454D+02  KE=-1.098650916051D+02
  Exact polarizability:       0.000       0.000       0.000       0.000       0.000       0.000
 Approx polarizability:     136.131      -4.793      98.826       0.834      -2.450      34.133
 Calling FoFJK, ICntrl=    100127 FMM=F ISym2X=0 I1Cent= 0 IOpClX= 0 NMat=1 NMatS=1 NMatT=0.
 -------------------------------------------------------------------
 Center     Atomic                   Forces (Hartrees/Bohr)
 Number     Number              X              Y              Z
 -------------------------------------------------------------------
      1        6          -0.000000044    0.000000330   -0.000000248
      2        6          -0.000000042    0.000000345    0.000000157
      3        6          -0.000001365    0.000000857    0.000000502
      4        6           0.000000061   -0.000001501    0.000000085
      5        6           0.000000361   -0.000000338   -0.000000212
      6        6           0.000000291   -0.000000110   -0.000000034
      7        1           0.000000024   -0.000000034    0.000000198
      8        1           0.000000044    0.000000046    0.000000011
      9        1          -0.000000070    0.000000040   -0.000000105
     10        6           0.000000529   -0.000000133   -0.000000248
     11        6           0.000000445    0.000000441    0.000000157
     12        1           0.000000019   -0.000000058   -0.000000018
     13        1           0.000000089    0.000000016    0.000000050
     14        1           0.000000032   -0.000000079    0.000000071
     15       16           0.000000096   -0.000000119   -0.000000359
     16        8           0.000000364    0.000000009    0.000000139
     17        8          -0.000000510    0.000000259   -0.000000016
     18        1          -0.000000156   -0.000000029   -0.000000119
     19        1          -0.000000167    0.000000056   -0.000000013
 -------------------------------------------------------------------
 Cartesian Forces:  Max     0.000001501 RMS     0.000000360
 IRC-IRC-IRC-IRC-IRC-IRC-IRC-IRC-IRC-IRC-IRC-IRC-IRC-IRC-IRC-IRC-IRC-IRC
          ******** Start new reaction path calculation ********
 Supplied step size of   0.1000 bohr.
    Integration on MW PES will use step size of   0.2693 sqrt(amu)*bohr.
 Point Number:   0          Path Number:   1
 Calculating another point on the path.
 IRC-IRC-IRC-IRC-IRC-IRC-IRC-IRC-IRC-IRC-IRC-IRC-IRC-IRC-IRC-IRC-IRC-IRC
                          Input orientation:                          
 ---------------------------------------------------------------------
 Center     Atomic      Atomic             Coordinates (Angstroms)
 Number     Number       Type             X           Y           Z
 ---------------------------------------------------------------------
      1          6           0       -2.352685   -1.894762   -0.109205
      2          6           0       -1.039450   -1.943693   -0.430442
      3          6           0       -0.285300   -0.736144   -0.768045
      4          6           0       -1.002978    0.539363   -0.731103
      5          6           0       -2.411785    0.523416   -0.344067
      6          6           0       -3.059423   -0.629723   -0.060468
      7          1           0        1.619613   -0.036351   -1.513055
      8          1           0       -2.917833   -2.797610    0.122762
      9          1           0       -0.499382   -2.888929   -0.469553
     10          6           0        1.064472   -0.797910   -0.975363
     11          6           0       -0.349848    1.724648   -0.909828
     12          1           0       -2.923046    1.486068   -0.304769
     13          1           0       -4.112663   -0.646167    0.210836
     14          1           0       -0.809638    2.679513   -0.684797
     15         16           0        1.749497    0.372066    0.975524
     16          8           0        3.163462    0.281549    0.810102
     17          8           0        0.886258    1.519735    0.798500
     18          1           0        0.621477    1.819606   -1.381236
     19          1           0        1.613413   -1.729045   -0.918276
 ---------------------------------------------------------------------
                    Distance matrix (angstroms):
                    1          2          3          4          5
     1  C    0.000000
     2  C    1.352839   0.000000
     3  C    2.459785   1.463178   0.000000
     4  C    2.851917   2.501459   1.464017   0.000000
     5  C    2.430275   2.824428   2.507625   1.461091   0.000000
     6  C    1.449888   2.437968   2.864916   2.458756   1.352624
     7  H    4.604741   3.446828   2.161816   2.796584   4.234624
     8  H    1.090108   2.136243   3.460261   3.940958   3.391641
     9  H    2.133765   1.089346   2.183898   3.474940   3.913711
    10  C    3.691921   2.456877   1.366998   2.474331   3.772108
    11  C    4.213369   3.763254   2.465718   1.365071   2.452473
    12  H    3.434176   3.914970   3.480022   2.182813   1.090702
    13  H    2.181498   3.396976   3.951583   3.458739   2.137482
    14  H    4.861716   4.635897   3.456671   2.149363   2.707715
    15  S    4.810722   3.888149   2.899752   3.242944   4.368123
    16  O    6.000778   4.914786   3.926858   4.449832   5.698595
    17  O    4.793065   4.148974   2.985901   2.621073   3.629765
    18  H    4.925467   4.221979   2.780307   2.168074   3.457817
    19  H    4.051172   2.705871   2.147914   3.467883   4.648173
                    6          7          8          9         10
     6  C    0.000000
     7  H    4.935127   0.000000
     8  H    2.180220   5.557775   0.000000
     9  H    3.438775   3.703544   2.491602   0.000000
    10  C    4.227509   1.085019   4.589492   2.659670   0.000000
    11  C    3.688667   2.709940   5.302038   4.636948   2.892731
    12  H    2.134210   4.940999   4.304964   5.004188   4.643980
    13  H    1.087746   6.016865   2.462536   4.306821   5.313457
    14  H    4.049982   3.736735   5.924147   5.581230   3.960958
    15  S    5.020216   2.525213   5.705964   4.216609   2.375723
    16  O    6.349221   2.807417   6.850972   5.010576   2.959540
    17  O    4.574537   2.881406   5.793721   4.792106   2.924009
    18  H    4.614397   2.111452   6.008944   4.925220   2.685585
    19  H    4.876447   1.794161   4.770511   2.451649   1.082408
                   11         12         13         14         15
    11  C    0.000000
    12  H    2.654122   0.000000
    13  H    4.586440   2.495489   0.000000
    14  H    1.083427   2.456669   4.772031   0.000000
    15  S    3.129102   4.971198   5.998872   3.824938   0.000000
    16  O    4.169418   6.303919   7.359468   4.875498   1.426483
    17  O    2.118569   3.965997   5.479570   2.534032   1.446951
    18  H    1.083842   3.719364   5.570171   1.809021   2.986992
    19  H    3.972714   5.593997   5.935947   5.035978   2.831901
                   16         17         18         19
    16  O    0.000000
    17  O    2.592084   0.000000
    18  H    3.691784   2.216141   0.000000
    19  H    3.071227   3.745751   3.713650   0.000000
 Symmetry turned off by external request.
 Stoichiometry    C8H8O2S
 Framework group  C1[X(C8H8O2S)]
 Deg. of freedom    51
 Full point group                 C1      NOp   1
 Rotational constants (GHZ):           1.9973241           0.6881953           0.5905215
 Standard basis: VSTO-6G (5D, 7F)
    57 basis functions,   348 primitive gaussians,    58 cartesian basis functions
    29 alpha electrons       29 beta electrons
       nuclear repulsion energy       336.9616686331 Hartrees.
 Integral buffers will be    131072 words long.
 Regular integral format.
 Two-electron integral symmetry is turned off.
 Do NDO integrals.
 One-electron integrals computed using PRISM.
 NBasis=    57 RedAO= F EigKep=  0.00D+00  NBF=    57
 NBsUse=    57 1.00D-04 EigRej=  0.00D+00 NBFU=    57
 Initial guess from the checkpoint file:  "C:\Users\al6323\OneDrive - Imperial College London\Desktop\TSR20251115\Exercise 3\DA reaction\TS_exo_Berny_IRC.chk"
 B after Tr=     3.952446   -0.722521   -1.607428
         Rot=    1.000000    0.000050   -0.000007   -0.000020 Ang=   0.01 deg.
 Keep J ints in memory in canonical form, NReq=1859402.
 Overlap will be assumed to be unity.
 Requested convergence on RMS density matrix=1.00D-08 within  32 cycles.
 Requested convergence on MAX density matrix=1.00D-06.
 Requested convergence on             energy=1.00D-06.
 No special actions if energy rises.
 SCF Done:  E(RPM6) = -0.387293636783E-02 A.U. after   15 cycles
            NFock= 14  Conv=0.61D-08     -V/T= 1.0000
 QCSCF skips out because SCF is already converged.
 Range of M.O.s used for correlation:     1    57
 NBasis=    57 NAE=    29 NBE=    29 NFC=     0 NFV=     0
 NROrb=     57 NOA=    29 NOB=    29 NVA=    28 NVB=    28
 Symmetrizing basis deriv contribution to polar:
 IMax=3 JMax=2 DiffMx= 0.00D+00
 G2DrvN: will do    20 centers at a time, making    1 passes.
 Calling FoFCou, ICntrl=  3107 FMM=F I1Cent=   0 AccDes= 0.00D+00.
 End of G2Drv F.D. properties file   721 does not exist.
 End of G2Drv F.D. properties file   722 does not exist.
 End of G2Drv F.D. properties file   788 does not exist.
          IDoAtm=1111111111111111111
          Differentiating once with respect to nuclear coordinates.
          Electric field/nuclear overlap derivatives assumed to be zero.
 Keep J ints in memory in canonical form, NReq=1861376.
          There are    60 degrees of freedom in the 1st order CPHF.  IDoFFX=5 NUNeed=    60.
 LinEq1:  Iter=  0 NonCon=    57 RMS=1.41D-02 Max=1.37D-01 NDo=    57
 AX will form    60 AO Fock derivatives at one time.
 LinEq1:  Iter=  1 NonCon=    57 RMS=6.17D-03 Max=9.96D-02 NDo=    60
 LinEq1:  Iter=  2 NonCon=    57 RMS=1.19D-03 Max=9.20D-03 NDo=    60
 LinEq1:  Iter=  3 NonCon=    57 RMS=2.80D-04 Max=4.45D-03 NDo=    60
 LinEq1:  Iter=  4 NonCon=    57 RMS=8.33D-05 Max=5.94D-04 NDo=    60
 LinEq1:  Iter=  5 NonCon=    57 RMS=3.13D-05 Max=2.94D-04 NDo=    60
 LinEq1:  Iter=  6 NonCon=    57 RMS=8.97D-06 Max=7.69D-05 NDo=    60
 LinEq1:  Iter=  7 NonCon=    57 RMS=2.19D-06 Max=2.01D-05 NDo=    60
 LinEq1:  Iter=  8 NonCon=    57 RMS=5.49D-07 Max=5.88D-06 NDo=    60
 LinEq1:  Iter=  9 NonCon=    43 RMS=1.41D-07 Max=1.29D-06 NDo=    60
 LinEq1:  Iter= 10 NonCon=    16 RMS=2.58D-08 Max=2.08D-07 NDo=    43
 LinEq1:  Iter= 11 NonCon=     0 RMS=4.20D-09 Max=4.16D-08 NDo=    16
 Linear equations converged to 1.000D-08 1.000D-07 after    11 iterations.
 End of Minotr F.D. properties file   721 does not exist.
 End of Minotr F.D. properties file   722 does not exist.
 End of Minotr F.D. properties file   788 does not exist.
 Calling FoFJK, ICntrl=    100127 FMM=F ISym2X=0 I1Cent= 0 IOpClX= 0 NMat=1 NMatS=1 NMatT=0.
 -------------------------------------------------------------------
 Center     Atomic                   Forces (Hartrees/Bohr)
 Number     Number              X              Y              Z
 -------------------------------------------------------------------
      1        6          -0.000100330   -0.000017774    0.000105122
      2        6           0.000064205   -0.000035929    0.000028314
      3        6          -0.000358073   -0.000034447   -0.000212248
      4        6          -0.000391847   -0.000200385   -0.000301327
      5        6          -0.000128212    0.000044342   -0.000085818
      6        6          -0.000072018   -0.000154663    0.000107517
      7        1          -0.000062010   -0.000083004    0.000004361
      8        1          -0.000001231   -0.000001314    0.000015678
      9        1          -0.000001836   -0.000007653    0.000016136
     10        6          -0.000162256   -0.000424128   -0.001460434
     11        6          -0.000760474    0.000390046   -0.001576693
     12        1          -0.000024182   -0.000004691    0.000006865
     13        1          -0.000000287   -0.000012065    0.000024903
     14        1          -0.000155235   -0.000001378   -0.000303578
     15       16           0.001310935    0.000455298    0.001885346
     16        8           0.000247525   -0.000360215    0.000154417
     17        8           0.000831504    0.000462645    0.001726461
     18        1          -0.000194272    0.000036502    0.000035317
     19        1          -0.000041905   -0.000051188   -0.000170339
 -------------------------------------------------------------------
 Cartesian Forces:  Max     0.001885346 RMS     0.000528032
 IRC-IRC-IRC-IRC-IRC-IRC-IRC-IRC-IRC-IRC-IRC-IRC-IRC-IRC-IRC-IRC-IRC-IRC
 Pt  1 Step number   1 out of a maximum of  20
 Modified Bulirsch-Stoer Extrapolation Cycles:
    EPS =    0.000010000000000
      PEZero:  N= 2 I= 1 D=  7.01D-04 Err=  9.31D-04
      PEZero:  N= 3 I= 2 D=  7.01D-04 Err=  6.21D-04
      PEZero:  N= 3 I= 1 D=  1.40D-03 Err=  1.33D-07
 Maximum DWI energy   std dev =  0.000003301 at pt    18
 Maximum DWI gradient std dev =  0.071024014 at pt    20
 CORRECTOR INTEGRATION CONVERGENCE:
   Recorrection delta-x convergence threshold:    0.010000
   Delta-x Convergence Met
 Point Number:   1          Path Number:   1
   CHANGE IN THE REACTION COORDINATE =    0.26920
   NET REACTION COORDINATE UP TO THIS POINT =    0.26920
  # OF POINTS ALONG THE PATH =   1
  # OF STEPS =   1

 Calculating another point on the path.
 IRC-IRC-IRC-IRC-IRC-IRC-IRC-IRC-IRC-IRC-IRC-IRC-IRC-IRC-IRC-IRC-IRC-IRC
                          Input orientation:                          
 ---------------------------------------------------------------------
 Center     Atomic      Atomic             Coordinates (Angstroms)
 Number     Number       Type             X           Y           Z
 ---------------------------------------------------------------------
      1          6           0       -2.352449   -1.895814   -0.108091
      2          6           0       -1.040255   -1.944662   -0.429552
      3          6           0       -0.285186   -0.737019   -0.771194
      4          6           0       -1.005127    0.541324   -0.735024
      5          6           0       -2.414758    0.522808   -0.344619
      6          6           0       -3.060269   -0.629893   -0.059386
      7          1           0        1.618503   -0.034167   -1.512665
      8          1           0       -2.917921   -2.798119    0.124961
      9          1           0       -0.499547   -2.889647   -0.467774
     10          6           0        1.058737   -0.803404   -0.991846
     11          6           0       -0.362541    1.725790   -0.927944
     12          1           0       -2.926257    1.485361   -0.304752
     13          1           0       -4.113014   -0.647722    0.214019
     14          1           0       -0.827302    2.681099   -0.716598
     15         16           0        1.754135    0.375271    0.983323
     16          8           0        3.165669    0.278349    0.811495
     17          8           0        0.895315    1.521199    0.813276
     18          1           0        0.618601    1.822085   -1.377052
     19          1           0        1.608899   -1.733704   -0.936278
 ---------------------------------------------------------------------
                    Distance matrix (angstroms):
                    1          2          3          4          5
     1  C    0.000000
     2  C    1.351879   0.000000
     3  C    2.460912   1.464667   0.000000
     4  C    2.854464   2.504929   1.467577   0.000000
     5  C    2.430959   2.825753   2.510818   1.462812   0.000000
     6  C    1.451185   2.438462   2.866920   2.460050   1.351577
     7  H    4.605108   3.448495   2.160513   2.796310   4.235770
     8  H    1.090058   2.135768   3.461578   3.943379   3.391495
     9  H    2.133149   1.089414   2.184450   3.478303   3.915106
    10  C    3.689251   2.454467   1.363534   2.476647   3.773977
    11  C    4.212826   3.765622   2.469004   1.361284   2.449291
    12  H    3.435153   3.916329   3.483072   2.183364   1.090746
    13  H    2.181989   3.396776   3.953591   3.460271   2.136889
    14  H    4.862559   4.639548   3.461271   2.147230   2.704922
    15  S    4.817992   3.897040   2.911074   3.254815   4.377769
    16  O    6.001853   4.916479   3.929921   4.456053   5.704166
    17  O    4.803422   4.159716   3.000613   2.639899   3.646105
    18  H    4.925461   4.223498   2.780811   2.165419   3.457644
    19  H    4.050241   2.705419   2.146670   3.471222   4.650991
                    6          7          8          9         10
     6  C    0.000000
     7  H    4.935364   0.000000
     8  H    2.180701   5.558813   0.000000
     9  H    3.439560   3.705631   2.491635   0.000000
    10  C    4.226795   1.084582   4.586933   2.656183   0.000000
    11  C    3.685290   2.713647   5.301352   4.640343   2.901885
    12  H    2.133649   4.941949   4.304988   5.005616   4.646581
    13  H    1.087815   6.017323   2.461785   4.306764   5.312754
    14  H    4.047312   3.740100   5.924588   5.585924   3.971733
    15  S    5.027533   2.532980   5.712732   4.224270   2.402945
    16  O    6.351821   2.809467   6.851719   5.010642   2.976808
    17  O    4.586434   2.890011   5.802676   4.800239   2.947703
    18  H    4.613298   2.112786   6.009103   4.927216   2.689850
    19  H    4.877342   1.794642   4.769833   2.449744   1.082231
                   11         12         13         14         15
    11  C    0.000000
    12  H    2.649304   0.000000
    13  H    4.582978   2.495508   0.000000
    14  H    1.083182   2.450514   4.768962   0.000000
    15  S    3.155497   4.979709   6.005147   3.856215   0.000000
    16  O    4.191539   6.309868   7.361644   4.904293   1.425253
    17  O    2.157755   3.981919   5.490600   2.579398   1.442095
    18  H    1.083333   3.718766   5.569527   1.806859   2.992336
    19  H    3.981802   5.597217   5.936567   5.047159   2.855475
                   16         17         18         19
    16  O    0.000000
    17  O    2.588278   0.000000
    18  H    3.695999   2.228147   0.000000
    19  H    3.086518   3.763580   3.717338   0.000000
 Symmetry turned off by external request.
 Stoichiometry    C8H8O2S
 Framework group  C1[X(C8H8O2S)]
 Deg. of freedom    51
 Full point group                 C1      NOp   1
 Rotational constants (GHZ):           1.9828720           0.6852941           0.5889683
 Standard basis: VSTO-6G (5D, 7F)
    57 basis functions,   348 primitive gaussians,    58 cartesian basis functions
    29 alpha electrons       29 beta electrons
       nuclear repulsion energy       336.5789561303 Hartrees.
 Integral buffers will be    131072 words long.
 Regular integral format.
 Two-electron integral symmetry is turned off.
 Do NDO integrals.
 One-electron integrals computed using PRISM.
 NBasis=    57 RedAO= F EigKep=  0.00D+00  NBF=    57
 NBsUse=    57 1.00D-04 EigRej=  0.00D+00 NBFU=    57
 Initial guess from the checkpoint file:  "C:\Users\al6323\OneDrive - Imperial College London\Desktop\TSR20251115\Exercise 3\DA reaction\TS_exo_Berny_IRC.chk"
 B after Tr=    -0.000316   -0.000009   -0.000408
         Rot=    1.000000    0.000064   -0.000019   -0.000023 Ang=   0.01 deg.
 Keep J ints in memory in canonical form, NReq=1859402.
 Overlap will be assumed to be unity.
 Requested convergence on RMS density matrix=1.00D-08 within  32 cycles.
 Requested convergence on MAX density matrix=1.00D-06.
 Requested convergence on             energy=1.00D-06.
 No special actions if energy rises.
 SCF Done:  E(RPM6) = -0.423030473087E-02 A.U. after   15 cycles
            NFock= 14  Conv=0.51D-08     -V/T= 1.0000
 QCSCF skips out because SCF is already converged.
 Range of M.O.s used for correlation:     1    57
 NBasis=    57 NAE=    29 NBE=    29 NFC=     0 NFV=     0
 NROrb=     57 NOA=    29 NOB=    29 NVA=    28 NVB=    28
 Symmetrizing basis deriv contribution to polar:
 IMax=3 JMax=2 DiffMx= 0.00D+00
 G2DrvN: will do    20 centers at a time, making    1 passes.
 Calling FoFCou, ICntrl=  3107 FMM=F I1Cent=   0 AccDes= 0.00D+00.
 End of G2Drv F.D. properties file   721 does not exist.
 End of G2Drv F.D. properties file   722 does not exist.
 End of G2Drv F.D. properties file   788 does not exist.
          IDoAtm=1111111111111111111
          Differentiating once with respect to nuclear coordinates.
          Electric field/nuclear overlap derivatives assumed to be zero.
 Keep J ints in memory in canonical form, NReq=1861376.
          There are    60 degrees of freedom in the 1st order CPHF.  IDoFFX=5 NUNeed=    60.
 LinEq1:  Iter=  0 NonCon=    57 RMS=1.42D-02 Max=1.44D-01 NDo=    57
 AX will form    60 AO Fock derivatives at one time.
 LinEq1:  Iter=  1 NonCon=    57 RMS=6.18D-03 Max=1.02D-01 NDo=    60
 LinEq1:  Iter=  2 NonCon=    57 RMS=1.16D-03 Max=9.49D-03 NDo=    60
 LinEq1:  Iter=  3 NonCon=    57 RMS=2.57D-04 Max=3.98D-03 NDo=    60
 LinEq1:  Iter=  4 NonCon=    57 RMS=7.97D-05 Max=5.96D-04 NDo=    60
 LinEq1:  Iter=  5 NonCon=    57 RMS=3.00D-05 Max=2.95D-04 NDo=    60
 LinEq1:  Iter=  6 NonCon=    57 RMS=8.30D-06 Max=7.31D-05 NDo=    60
 LinEq1:  Iter=  7 NonCon=    57 RMS=1.94D-06 Max=1.68D-05 NDo=    60
 LinEq1:  Iter=  8 NonCon=    57 RMS=4.71D-07 Max=5.00D-06 NDo=    60
 LinEq1:  Iter=  9 NonCon=    42 RMS=1.19D-07 Max=1.15D-06 NDo=    60
 LinEq1:  Iter= 10 NonCon=    13 RMS=2.26D-08 Max=1.90D-07 NDo=    42
 LinEq1:  Iter= 11 NonCon=     0 RMS=3.76D-09 Max=3.48D-08 NDo=    13
 Linear equations converged to 1.000D-08 1.000D-07 after    11 iterations.
 End of Minotr F.D. properties file   721 does not exist.
 End of Minotr F.D. properties file   722 does not exist.
 End of Minotr F.D. properties file   788 does not exist.
 Calling FoFJK, ICntrl=    100127 FMM=F ISym2X=0 I1Cent= 0 IOpClX= 0 NMat=1 NMatS=1 NMatT=0.
 -------------------------------------------------------------------
 Center     Atomic                   Forces (Hartrees/Bohr)
 Number     Number              X              Y              Z
 -------------------------------------------------------------------
      1        6          -0.000057123   -0.000089833    0.000176477
      2        6          -0.000015303   -0.000086581    0.000079967
      3        6          -0.000271506   -0.000063479   -0.000403519
      4        6          -0.000451244   -0.000021510   -0.000524781
      5        6          -0.000318909   -0.000028148   -0.000130225
      6        6          -0.000121047   -0.000136910    0.000163087
      7        1          -0.000053669   -0.000045944   -0.000011542
      8        1          -0.000000184   -0.000004738    0.000028572
      9        1          -0.000001860   -0.000008140    0.000022779
     10        6          -0.000559236   -0.000654338   -0.002243899
     11        6          -0.001452373    0.000349356   -0.002411569
     12        1          -0.000038628   -0.000009597    0.000001246
     13        1          -0.000001497   -0.000018813    0.000038834
     14        1          -0.000207457   -0.000021665   -0.000420215
     15       16           0.001896097    0.000985091    0.002922595
     16        8           0.000409501   -0.000618133    0.000256066
     17        8           0.001465620    0.000493056    0.002667651
     18        1          -0.000159528    0.000044384    0.000033057
     19        1          -0.000061654   -0.000064058   -0.000244583
 -------------------------------------------------------------------
 Cartesian Forces:  Max     0.002922595 RMS     0.000820093
 IRC-IRC-IRC-IRC-IRC-IRC-IRC-IRC-IRC-IRC-IRC-IRC-IRC-IRC-IRC-IRC-IRC-IRC
 Pt  2 Step number   1 out of a maximum of  20
 Modified Bulirsch-Stoer Extrapolation Cycles:
    EPS =    0.000010000000000
      PEZero:  N= 2 I= 1 D=  1.40D-03 Err=  2.07D-05
      PEZero:  N= 3 I= 2 D=  1.40D-03 Err=  1.38D-05
      PEZero:  N= 3 I= 1 D=  2.80D-03 Err=  7.27D-08
 Maximum DWI energy   std dev =  0.000002065 at pt    14
 Maximum DWI gradient std dev =  0.038877632 at pt    25
 CORRECTOR INTEGRATION CONVERGENCE:
   Recorrection delta-x convergence threshold:    0.010000
   Delta-x Convergence Met
 Point Number:   2          Path Number:   1
   CHANGE IN THE REACTION COORDINATE =    0.26918
   NET REACTION COORDINATE UP TO THIS POINT =    0.53839
  # OF POINTS ALONG THE PATH =   2
  # OF STEPS =   1

 Calculating another point on the path.
 IRC-IRC-IRC-IRC-IRC-IRC-IRC-IRC-IRC-IRC-IRC-IRC-IRC-IRC-IRC-IRC-IRC-IRC
                          Input orientation:                          
 ---------------------------------------------------------------------
 Center     Atomic      Atomic             Coordinates (Angstroms)
 Number     Number       Type             X           Y           Z
 ---------------------------------------------------------------------
      1          6           0       -2.352298   -1.896843   -0.106770
      2          6           0       -1.041040   -1.945486   -0.428750
      3          6           0       -0.285525   -0.737743   -0.774502
      4          6           0       -1.007590    0.542919   -0.739167
      5          6           0       -2.417802    0.522081   -0.345499
      6          6           0       -3.061192   -0.630288   -0.058221
      7          1           0        1.616731   -0.032358   -1.513844
      8          1           0       -2.917813   -2.798703    0.127675
      9          1           0       -0.499622   -2.890175   -0.465904
     10          6           0        1.053013   -0.808362   -1.008388
     11          6           0       -0.374713    1.726787   -0.945715
     12          1           0       -2.929660    1.484461   -0.305105
     13          1           0       -4.113372   -0.649350    0.217511
     14          1           0       -0.845173    2.682205   -0.749101
     15         16           0        1.759053    0.378485    0.991375
     16          8           0        3.168121    0.274752    0.812941
     17          8           0        0.904036    1.523087    0.827955
     18          1           0        0.614861    1.824678   -1.374550
     19          1           0        1.603891   -1.738210   -0.955553
 ---------------------------------------------------------------------
                    Distance matrix (angstroms):
                    1          2          3          4          5
     1  C    0.000000
     2  C    1.351087   0.000000
     3  C    2.461896   1.465944   0.000000
     4  C    2.856677   2.507915   1.470620   0.000000
     5  C    2.431558   2.826888   2.513525   1.464277   0.000000
     6  C    1.452256   2.438863   2.868612   2.461176   1.350717
     7  H    4.605362   3.449817   2.159345   2.796092   4.236731
     8  H    1.090010   2.135383   3.462718   3.945479   3.391388
     9  H    2.132627   1.089472   2.184956   3.481212   3.916299
    10  C    3.686984   2.452364   1.360652   2.478815   3.775720
    11  C    4.212525   3.767869   2.472079   1.358212   2.446587
    12  H    3.435972   3.917488   3.485682   2.183865   1.090782
    13  H    2.182379   3.396594   3.955291   3.461593   2.136397
    14  H    4.863301   4.642900   3.465530   2.145465   2.702256
    15  S    4.825583   3.906165   2.923112   3.267434   4.387934
    16  O    6.003059   4.918159   3.933546   4.462904   5.710139
    17  O    4.813870   4.170567   3.015672   2.659119   3.662460
    18  H    4.925548   4.225007   2.781502   2.163092   3.457275
    19  H    4.049324   2.704837   2.145601   3.474220   4.653503
                    6          7          8          9         10
     6  C    0.000000
     7  H    4.935517   0.000000
     8  H    2.181086   5.559616   0.000000
     9  H    3.440194   3.707323   2.491656   0.000000
    10  C    4.226253   1.084179   4.584709   2.653094   0.000000
    11  C    3.682475   2.717206   5.300904   4.643507   2.910208
    12  H    2.133171   4.942819   4.304990   5.006834   4.649014
    13  H    1.087876   6.017670   2.461128   4.306686   5.312218
    14  H    4.044832   3.743615   5.924941   5.590261   3.981758
    15  S    5.035280   2.542669   5.719578   4.231951   2.430257
    16  O    6.354712   2.813370   6.852321   5.010443   2.994003
    17  O    4.598409   2.900235   5.811608   4.808451   2.971532
    18  H    4.612261   2.114647   6.009336   4.929254   2.694244
    19  H    4.878083   1.794933   4.769049   2.447763   1.082070
                   11         12         13         14         15
    11  C    0.000000
    12  H    2.645158   0.000000
    13  H    4.580033   2.495487   0.000000
    14  H    1.082965   2.444751   4.765997   0.000000
    15  S    3.181696   4.988795   6.011713   3.888236   0.000000
    16  O    4.213424   6.316356   7.364010   4.933795   1.424103
    17  O    2.196041   3.997817   5.501501   2.624956   1.438010
    18  H    1.082931   3.717942   5.568812   1.805059   2.999708
    19  H    3.990134   5.600159   5.937069   5.057727   2.880105
                   16         17         18         19
    16  O    0.000000
    17  O    2.585468   0.000000
    18  H    3.702232   2.241786   0.000000
    19  H    3.102645   3.782427   3.721278   0.000000
 Symmetry turned off by external request.
 Stoichiometry    C8H8O2S
 Framework group  C1[X(C8H8O2S)]
 Deg. of freedom    51
 Full point group                 C1      NOp   1
 Rotational constants (GHZ):           1.9684500           0.6822925           0.5873693
 Standard basis: VSTO-6G (5D, 7F)
    57 basis functions,   348 primitive gaussians,    58 cartesian basis functions
    29 alpha electrons       29 beta electrons
       nuclear repulsion energy       336.1889668130 Hartrees.
 Integral buffers will be    131072 words long.
 Regular integral format.
 Two-electron integral symmetry is turned off.
 Do NDO integrals.
 One-electron integrals computed using PRISM.
 NBasis=    57 RedAO= F EigKep=  0.00D+00  NBF=    57
 NBsUse=    57 1.00D-04 EigRej=  0.00D+00 NBFU=    57
 Initial guess from the checkpoint file:  "C:\Users\al6323\OneDrive - Imperial College London\Desktop\TSR20251115\Exercise 3\DA reaction\TS_exo_Berny_IRC.chk"
 B after Tr=    -0.000339   -0.000016   -0.000459
         Rot=    1.000000    0.000069   -0.000025   -0.000024 Ang=   0.01 deg.
 Keep J ints in memory in canonical form, NReq=1859402.
 Overlap will be assumed to be unity.
 Requested convergence on RMS density matrix=1.00D-08 within  32 cycles.
 Requested convergence on MAX density matrix=1.00D-06.
 Requested convergence on             energy=1.00D-06.
 No special actions if energy rises.
 SCF Done:  E(RPM6) = -0.470721530723E-02 A.U. after   15 cycles
            NFock= 14  Conv=0.41D-08     -V/T= 1.0000
 QCSCF skips out because SCF is already converged.
 Range of M.O.s used for correlation:     1    57
 NBasis=    57 NAE=    29 NBE=    29 NFC=     0 NFV=     0
 NROrb=     57 NOA=    29 NOB=    29 NVA=    28 NVB=    28
 Symmetrizing basis deriv contribution to polar:
 IMax=3 JMax=2 DiffMx= 0.00D+00
 G2DrvN: will do    20 centers at a time, making    1 passes.
 Calling FoFCou, ICntrl=  3107 FMM=F I1Cent=   0 AccDes= 0.00D+00.
 End of G2Drv F.D. properties file   721 does not exist.
 End of G2Drv F.D. properties file   722 does not exist.
 End of G2Drv F.D. properties file   788 does not exist.
          IDoAtm=1111111111111111111
          Differentiating once with respect to nuclear coordinates.
          Electric field/nuclear overlap derivatives assumed to be zero.
 Keep J ints in memory in canonical form, NReq=1861376.
          There are    60 degrees of freedom in the 1st order CPHF.  IDoFFX=5 NUNeed=    60.
 LinEq1:  Iter=  0 NonCon=    57 RMS=1.42D-02 Max=1.51D-01 NDo=    57
 AX will form    60 AO Fock derivatives at one time.
 LinEq1:  Iter=  1 NonCon=    57 RMS=6.20D-03 Max=1.05D-01 NDo=    60
 LinEq1:  Iter=  2 NonCon=    57 RMS=1.13D-03 Max=9.79D-03 NDo=    60
 LinEq1:  Iter=  3 NonCon=    57 RMS=2.39D-04 Max=3.57D-03 NDo=    60
 LinEq1:  Iter=  4 NonCon=    57 RMS=7.66D-05 Max=6.10D-04 NDo=    60
 LinEq1:  Iter=  5 NonCon=    57 RMS=2.87D-05 Max=2.88D-04 NDo=    60
 LinEq1:  Iter=  6 NonCon=    57 RMS=7.69D-06 Max=6.96D-05 NDo=    60
 LinEq1:  Iter=  7 NonCon=    57 RMS=1.72D-06 Max=1.57D-05 NDo=    60
 LinEq1:  Iter=  8 NonCon=    57 RMS=4.03D-07 Max=4.17D-06 NDo=    60
 LinEq1:  Iter=  9 NonCon=    39 RMS=1.00D-07 Max=9.94D-07 NDo=    60
 LinEq1:  Iter= 10 NonCon=     7 RMS=1.96D-08 Max=1.69D-07 NDo=    39
 LinEq1:  Iter= 11 NonCon=     0 RMS=3.46D-09 Max=3.01D-08 NDo=     7
 Linear equations converged to 1.000D-08 1.000D-07 after    11 iterations.
 End of Minotr F.D. properties file   721 does not exist.
 End of Minotr F.D. properties file   722 does not exist.
 End of Minotr F.D. properties file   788 does not exist.
 Calling FoFJK, ICntrl=    100127 FMM=F ISym2X=0 I1Cent= 0 IOpClX= 0 NMat=1 NMatS=1 NMatT=0.
 -------------------------------------------------------------------
 Center     Atomic                   Forces (Hartrees/Bohr)
 Number     Number              X              Y              Z
 -------------------------------------------------------------------
      1        6          -0.000047632   -0.000126039    0.000245256
      2        6          -0.000054983   -0.000092794    0.000094147
      3        6          -0.000290544   -0.000063417   -0.000528116
      4        6          -0.000531767    0.000025531   -0.000676036
      5        6          -0.000433980   -0.000084159   -0.000203883
      6        6          -0.000159815   -0.000161561    0.000205296
      7        1          -0.000059651   -0.000031617   -0.000036549
      8        1           0.000002945   -0.000007438    0.000041878
      9        1          -0.000000806   -0.000006053    0.000027317
     10        6          -0.000764589   -0.000698611   -0.002678043
     11        6          -0.001744743    0.000308094   -0.002816975
     12        1          -0.000048984   -0.000014607   -0.000006621
     13        1          -0.000002343   -0.000023345    0.000050280
     14        1          -0.000235949   -0.000035430   -0.000486194
     15       16           0.002324150    0.001264349    0.003576894
     16        8           0.000546933   -0.000834997    0.000322277
     17        8           0.001734198    0.000601641    0.003153206
     18        1          -0.000154359    0.000046884    0.000013006
     19        1          -0.000078078   -0.000066430   -0.000297140
 -------------------------------------------------------------------
 Cartesian Forces:  Max     0.003576894 RMS     0.000986716
 IRC-IRC-IRC-IRC-IRC-IRC-IRC-IRC-IRC-IRC-IRC-IRC-IRC-IRC-IRC-IRC-IRC-IRC
 Pt  3 Step number   1 out of a maximum of  20
 Modified Bulirsch-Stoer Extrapolation Cycles:
    EPS =    0.000010000000000
      PEZero:  N= 2 I= 1 D=  1.40D-03 Err=  2.37D-05
      PEZero:  N= 3 I= 2 D=  1.40D-03 Err=  1.57D-05
      PEZero:  N= 3 I= 1 D=  2.80D-03 Err=  5.72D-08
 Maximum DWI energy   std dev =  0.000001377 at pt    14
 Maximum DWI gradient std dev =  0.021730715 at pt    25
 CORRECTOR INTEGRATION CONVERGENCE:
   Recorrection delta-x convergence threshold:    0.010000
   Delta-x Convergence Met
 Point Number:   3          Path Number:   1
   CHANGE IN THE REACTION COORDINATE =    0.26922
   NET REACTION COORDINATE UP TO THIS POINT =    0.80761
  # OF POINTS ALONG THE PATH =   3
  # OF STEPS =   1

 Calculating another point on the path.
 IRC-IRC-IRC-IRC-IRC-IRC-IRC-IRC-IRC-IRC-IRC-IRC-IRC-IRC-IRC-IRC-IRC-IRC
                          Input orientation:                          
 ---------------------------------------------------------------------
 Center     Atomic      Atomic             Coordinates (Angstroms)
 Number     Number       Type             X           Y           Z
 ---------------------------------------------------------------------
      1          6           0       -2.352214   -1.897866   -0.105185
      2          6           0       -1.041820   -1.946160   -0.428046
      3          6           0       -0.286324   -0.738311   -0.778031
      4          6           0       -1.010406    0.544169   -0.743581
      5          6           0       -2.420980    0.521200   -0.346777
      6          6           0       -3.062217   -0.630925   -0.056964
      7          1           0        1.614204   -0.030699   -1.516581
      8          1           0       -2.917459   -2.799377    0.131028
      9          1           0       -0.499594   -2.890487   -0.463975
     10          6           0        1.047251   -0.812660   -1.024976
     11          6           0       -0.386322    1.727559   -0.963086
     12          1           0       -2.933342    1.483328   -0.306008
     13          1           0       -4.113760   -0.651086    0.221322
     14          1           0       -0.862866    2.682781   -0.781771
     15         16           0        1.764272    0.381757    0.999689
     16          8           0        3.170829    0.270670    0.814471
     17          8           0        0.912450    1.525380    0.842495
     18          1           0        0.610339    1.827161   -1.373835
     19          1           0        1.598465   -1.742342   -0.975951
 ---------------------------------------------------------------------
                    Distance matrix (angstroms):
                    1          2          3          4          5
     1  C    0.000000
     2  C    1.350445   0.000000
     3  C    2.462760   1.467025   0.000000
     4  C    2.858589   2.510436   1.473173   0.000000
     5  C    2.432072   2.827817   2.515771   1.465503   0.000000
     6  C    1.453124   2.439169   2.870026   2.462157   1.350025
     7  H    4.605520   3.450850   2.158281   2.795815   4.237422
     8  H    1.089964   2.135079   3.463705   3.947289   3.391316
     9  H    2.132188   1.089520   2.185401   3.483672   3.917278
    10  C    3.685112   2.450585   1.358283   2.480751   3.777270
    11  C    4.212414   3.769901   2.474826   1.355757   2.444376
    12  H    3.436642   3.918435   3.487863   2.184301   1.090810
    13  H    2.182685   3.396426   3.956713   3.462727   2.136000
    14  H    4.863975   4.645884   3.469335   2.144036   2.699885
    15  S    4.833517   3.915581   2.935947   3.280885   4.398722
    16  O    6.004358   4.919817   3.937768   4.470465   5.716607
    17  O    4.824390   4.181511   3.031083   2.678766   3.678927
    18  H    4.925649   4.226357   2.782200   2.161042   3.456773
    19  H    4.048492   2.704228   2.144687   3.476829   4.655687
                    6          7          8          9         10
     6  C    0.000000
     7  H    4.935551   0.000000
     8  H    2.181394   5.560230   0.000000
     9  H    3.440685   3.708708   2.491666   0.000000
    10  C    4.225849   1.083778   4.582828   2.650437   0.000000
    11  C    3.680207   2.720281   5.300650   4.646321   2.917478
    12  H    2.132767   4.943474   4.304976   5.007828   4.651193
    13  H    1.087931   6.017870   2.460578   4.306593   5.311817
    14  H    4.042665   3.746838   5.925253   5.594129   3.990715
    15  S    5.043515   2.554263   5.726499   4.239692   2.457645
    16  O    6.357919   2.819169   6.852703   5.009924   3.011105
    17  O    4.610494   2.911886   5.820474   4.816702   2.995338
    18  H    4.611291   2.116545   6.009561   4.931126   2.698379
    19  H    4.878703   1.795063   4.768259   2.445856   1.081919
                   11         12         13         14         15
    11  C    0.000000
    12  H    2.641725   0.000000
    13  H    4.577617   2.495433   0.000000
    14  H    1.082783   2.439654   4.763317   0.000000
    15  S    3.207604   4.998587   6.018628   3.920480   0.000000
    16  O    4.235040   6.323521   7.366594   4.963564   1.423042
    17  O    2.233340   4.013843   5.512318   2.670124   1.434637
    18  H    1.082575   3.717008   5.568065   1.803596   3.009048
    19  H    3.997469   5.602771   5.937493   5.067304   2.905588
                   16         17         18         19
    16  O    0.000000
    17  O    2.583672   0.000000
    18  H    3.710453   2.257091   0.000000
    19  H    3.119320   3.802022   3.725058   0.000000
 Symmetry turned off by external request.
 Stoichiometry    C8H8O2S
 Framework group  C1[X(C8H8O2S)]
 Deg. of freedom    51
 Full point group                 C1      NOp   1
 Rotational constants (GHZ):           1.9541382           0.6791839           0.5857244
 Standard basis: VSTO-6G (5D, 7F)
    57 basis functions,   348 primitive gaussians,    58 cartesian basis functions
    29 alpha electrons       29 beta electrons
       nuclear repulsion energy       335.7933299838 Hartrees.
 Integral buffers will be    131072 words long.
 Regular integral format.
 Two-electron integral symmetry is turned off.
 Do NDO integrals.
 One-electron integrals computed using PRISM.
 NBasis=    57 RedAO= F EigKep=  0.00D+00  NBF=    57
 NBsUse=    57 1.00D-04 EigRej=  0.00D+00 NBFU=    57
 Initial guess from the checkpoint file:  "C:\Users\al6323\OneDrive - Imperial College London\Desktop\TSR20251115\Exercise 3\DA reaction\TS_exo_Berny_IRC.chk"
 B after Tr=    -0.000356   -0.000022   -0.000504
         Rot=    1.000000    0.000072   -0.000030   -0.000025 Ang=   0.01 deg.
 Keep J ints in memory in canonical form, NReq=1859402.
 Overlap will be assumed to be unity.
 Requested convergence on RMS density matrix=1.00D-08 within  32 cycles.
 Requested convergence on MAX density matrix=1.00D-06.
 Requested convergence on             energy=1.00D-06.
 No special actions if energy rises.
 SCF Done:  E(RPM6) = -0.524327372807E-02 A.U. after   15 cycles
            NFock= 14  Conv=0.36D-08     -V/T= 1.0000
 QCSCF skips out because SCF is already converged.
 Range of M.O.s used for correlation:     1    57
 NBasis=    57 NAE=    29 NBE=    29 NFC=     0 NFV=     0
 NROrb=     57 NOA=    29 NOB=    29 NVA=    28 NVB=    28
 Symmetrizing basis deriv contribution to polar:
 IMax=3 JMax=2 DiffMx= 0.00D+00
 G2DrvN: will do    20 centers at a time, making    1 passes.
 Calling FoFCou, ICntrl=  3107 FMM=F I1Cent=   0 AccDes= 0.00D+00.
 End of G2Drv F.D. properties file   721 does not exist.
 End of G2Drv F.D. properties file   722 does not exist.
 End of G2Drv F.D. properties file   788 does not exist.
          IDoAtm=1111111111111111111
          Differentiating once with respect to nuclear coordinates.
          Electric field/nuclear overlap derivatives assumed to be zero.
 Keep J ints in memory in canonical form, NReq=1861376.
          There are    60 degrees of freedom in the 1st order CPHF.  IDoFFX=5 NUNeed=    60.
 LinEq1:  Iter=  0 NonCon=    57 RMS=1.42D-02 Max=1.58D-01 NDo=    57
 AX will form    60 AO Fock derivatives at one time.
 LinEq1:  Iter=  1 NonCon=    57 RMS=6.21D-03 Max=1.07D-01 NDo=    60
 LinEq1:  Iter=  2 NonCon=    57 RMS=1.11D-03 Max=1.01D-02 NDo=    60
 LinEq1:  Iter=  3 NonCon=    57 RMS=2.25D-04 Max=3.22D-03 NDo=    60
 LinEq1:  Iter=  4 NonCon=    57 RMS=7.42D-05 Max=6.34D-04 NDo=    60
 LinEq1:  Iter=  5 NonCon=    57 RMS=2.75D-05 Max=2.76D-04 NDo=    60
 LinEq1:  Iter=  6 NonCon=    57 RMS=7.16D-06 Max=6.67D-05 NDo=    60
 LinEq1:  Iter=  7 NonCon=    57 RMS=1.54D-06 Max=1.46D-05 NDo=    60
 LinEq1:  Iter=  8 NonCon=    57 RMS=3.53D-07 Max=4.00D-06 NDo=    60
 LinEq1:  Iter=  9 NonCon=    36 RMS=8.40D-08 Max=8.41D-07 NDo=    60
 LinEq1:  Iter= 10 NonCon=     6 RMS=1.73D-08 Max=1.43D-07 NDo=    36
 LinEq1:  Iter= 11 NonCon=     0 RMS=3.19D-09 Max=2.99D-08 NDo=     6
 Linear equations converged to 1.000D-08 1.000D-07 after    11 iterations.
 End of Minotr F.D. properties file   721 does not exist.
 End of Minotr F.D. properties file   722 does not exist.
 End of Minotr F.D. properties file   788 does not exist.
 Calling FoFJK, ICntrl=    100127 FMM=F ISym2X=0 I1Cent= 0 IOpClX= 0 NMat=1 NMatS=1 NMatT=0.
 -------------------------------------------------------------------
 Center     Atomic                   Forces (Hartrees/Bohr)
 Number     Number              X              Y              Z
 -------------------------------------------------------------------
      1        6          -0.000039968   -0.000145562    0.000307111
      2        6          -0.000078396   -0.000081028    0.000091225
      3        6          -0.000323541   -0.000051216   -0.000614963
      4        6          -0.000594441    0.000035477   -0.000776389
      5        6          -0.000509322   -0.000132237   -0.000279355
      6        6          -0.000187472   -0.000188788    0.000231744
      7        1          -0.000065686   -0.000019470   -0.000060981
      8        1           0.000007111   -0.000009302    0.000054130
      9        1           0.000000788   -0.000002838    0.000029169
     10        6          -0.000881218   -0.000642754   -0.002854573
     11        6          -0.001833498    0.000244857   -0.002941191
     12        1          -0.000056303   -0.000019064   -0.000016476
     13        1          -0.000003043   -0.000026339    0.000057490
     14        1          -0.000240616   -0.000048355   -0.000505774
     15       16           0.002578641    0.001423634    0.003916670
     16        8           0.000635527   -0.001001496    0.000364216
     17        8           0.001826878    0.000680225    0.003335260
     18        1          -0.000147072    0.000044998   -0.000012842
     19        1          -0.000088370   -0.000060740   -0.000324471
 -------------------------------------------------------------------
 Cartesian Forces:  Max     0.003916670 RMS     0.001063162
 IRC-IRC-IRC-IRC-IRC-IRC-IRC-IRC-IRC-IRC-IRC-IRC-IRC-IRC-IRC-IRC-IRC-IRC
 Pt  4 Step number   1 out of a maximum of  20
 Modified Bulirsch-Stoer Extrapolation Cycles:
    EPS =    0.000010000000000
      PEZero:  N= 2 I= 1 D=  1.40D-03 Err=  2.57D-05
      PEZero:  N= 3 I= 2 D=  1.40D-03 Err=  1.71D-05
      PEZero:  N= 3 I= 1 D=  2.80D-03 Err=  5.41D-08
 Maximum DWI energy   std dev =  0.000000925 at pt    33
 Maximum DWI gradient std dev =  0.015053690 at pt    25
 CORRECTOR INTEGRATION CONVERGENCE:
   Recorrection delta-x convergence threshold:    0.010000
   Delta-x Convergence Met
 Point Number:   4          Path Number:   1
   CHANGE IN THE REACTION COORDINATE =    0.26923
   NET REACTION COORDINATE UP TO THIS POINT =    1.07684
  # OF POINTS ALONG THE PATH =   4
  # OF STEPS =   1

 Calculating another point on the path.
 IRC-IRC-IRC-IRC-IRC-IRC-IRC-IRC-IRC-IRC-IRC-IRC-IRC-IRC-IRC-IRC-IRC-IRC
                          Input orientation:                          
 ---------------------------------------------------------------------
 Center     Atomic      Atomic             Coordinates (Angstroms)
 Number     Number       Type             X           Y           Z
 ---------------------------------------------------------------------
      1          6           0       -2.352155   -1.898890   -0.103308
      2          6           0       -1.042597   -1.946693   -0.427440
      3          6           0       -0.287546   -0.738735   -0.781828
      4          6           0       -1.013574    0.545127   -0.748292
      5          6           0       -2.424330    0.520159   -0.348462
      6          6           0       -3.063343   -0.631782   -0.055625
      7          1           0        1.610963   -0.029012   -1.520661
      8          1           0       -2.916830   -2.800133    0.135079
      9          1           0       -0.499456   -2.890590   -0.462033
     10          6           0        1.041416   -0.816277   -1.041529
     11          6           0       -0.397425    1.728076   -0.980045
     12          1           0       -2.937344    1.481957   -0.307553
     13          1           0       -4.114190   -0.652950    0.225390
     14          1           0       -0.880089    2.682827   -0.814043
     15         16           0        1.769767    0.385115    1.008224
     16          8           0        3.173747    0.266097    0.816090
     17          8           0        0.920652    1.527994    0.856885
     18          1           0        0.605173    1.829409   -1.374797
     19          1           0        1.592732   -1.745965   -0.997106
 ---------------------------------------------------------------------
                    Distance matrix (angstroms):
                    1          2          3          4          5
     1  C    0.000000
     2  C    1.349921   0.000000
     3  C    2.463526   1.467943   0.000000
     4  C    2.860248   2.512559   1.475311   0.000000
     5  C    2.432511   2.828565   2.517631   1.466533   0.000000
     6  C    1.453832   2.439396   2.871213   2.463017   1.349466
     7  H    4.605609   3.451668   2.157294   2.795422   4.237833
     8  H    1.089920   2.134838   3.464566   3.948859   3.391269
     9  H    2.131817   1.089560   2.185786   3.485745   3.918067
    10  C    3.683562   2.449093   1.356317   2.482417   3.778597
    11  C    4.212424   3.771677   2.477199   1.353779   2.442602
    12  H    3.437192   3.919194   3.489676   2.184672   1.090831
    13  H    2.182929   3.396269   3.957910   3.463706   2.135677
    14  H    4.864592   4.648476   3.472640   2.142873   2.697884
    15  S    4.841738   3.925284   2.949552   3.295139   4.410134
    16  O    6.005668   4.921419   3.942534   4.478706   5.723565
    17  O    4.834953   4.192528   3.046831   2.698861   3.695605
    18  H    4.925716   4.227479   2.782790   2.159220   3.456210
    19  H    4.047764   2.703659   2.143899   3.479058   4.657558
                    6          7          8          9         10
     6  C    0.000000
     7  H    4.935464   0.000000
     8  H    2.181646   5.560710   0.000000
     9  H    3.441062   3.709877   2.491671   0.000000
    10  C    4.225529   1.083391   4.581245   2.648184   0.000000
    11  C    3.678396   2.722728   5.300526   4.648744   2.923658
    12  H    2.132425   4.943860   4.304955   5.008626   4.653077
    13  H    1.087978   6.017921   2.460126   4.306494   5.311500
    14  H    4.040845   3.749496   5.925537   5.597479   3.998457
    15  S    5.052209   2.567485   5.733444   4.247502   2.485021
    16  O    6.361397   2.826621   6.852785   5.009061   3.028055
    17  O    4.622719   2.924641   5.829233   4.824949   3.018968
    18  H    4.610389   2.118165   6.009732   4.932721   2.702042
    19  H    4.879225   1.795096   4.767522   2.444120   1.081778
                   11         12         13         14         15
    11  C    0.000000
    12  H    2.638940   0.000000
    13  H    4.575664   2.495360   0.000000
    14  H    1.082622   2.435347   4.761012   0.000000
    15  S    3.233184   5.009114   6.025891   3.952452   0.000000
    16  O    4.256378   6.331376   7.369369   4.993146   1.422055
    17  O    2.269730   4.030157   5.523127   2.714463   1.431807
    18  H    1.082266   3.716067   5.567323   1.802434   3.020108
    19  H    4.003746   5.605047   5.937857   5.075683   2.931586
                   16         17         18         19
    16  O    0.000000
    17  O    2.582728   0.000000
    18  H    3.720417   2.273935   0.000000
    19  H    3.136189   3.822013   3.728435   0.000000
 Symmetry turned off by external request.
 Stoichiometry    C8H8O2S
 Framework group  C1[X(C8H8O2S)]
 Deg. of freedom    51
 Full point group                 C1      NOp   1
 Rotational constants (GHZ):           1.9400200           0.6759816           0.5840409
 Standard basis: VSTO-6G (5D, 7F)
    57 basis functions,   348 primitive gaussians,    58 cartesian basis functions
    29 alpha electrons       29 beta electrons
       nuclear repulsion energy       335.3950231135 Hartrees.
 Integral buffers will be    131072 words long.
 Regular integral format.
 Two-electron integral symmetry is turned off.
 Do NDO integrals.
 One-electron integrals computed using PRISM.
 NBasis=    57 RedAO= F EigKep=  0.00D+00  NBF=    57
 NBsUse=    57 1.00D-04 EigRej=  0.00D+00 NBFU=    57
 Initial guess from the checkpoint file:  "C:\Users\al6323\OneDrive - Imperial College London\Desktop\TSR20251115\Exercise 3\DA reaction\TS_exo_Berny_IRC.chk"
 B after Tr=    -0.000368   -0.000027   -0.000538
         Rot=    1.000000    0.000075   -0.000035   -0.000027 Ang=   0.01 deg.
 Keep J ints in memory in canonical form, NReq=1859402.
 Overlap will be assumed to be unity.
 Requested convergence on RMS density matrix=1.00D-08 within  32 cycles.
 Requested convergence on MAX density matrix=1.00D-06.
 Requested convergence on             energy=1.00D-06.
 No special actions if energy rises.
 SCF Done:  E(RPM6) = -0.579879337403E-02 A.U. after   14 cycles
            NFock= 13  Conv=0.87D-08     -V/T= 0.9999
 QCSCF skips out because SCF is already converged.
 Range of M.O.s used for correlation:     1    57
 NBasis=    57 NAE=    29 NBE=    29 NFC=     0 NFV=     0
 NROrb=     57 NOA=    29 NOB=    29 NVA=    28 NVB=    28
 Symmetrizing basis deriv contribution to polar:
 IMax=3 JMax=2 DiffMx= 0.00D+00
 G2DrvN: will do    20 centers at a time, making    1 passes.
 Calling FoFCou, ICntrl=  3107 FMM=F I1Cent=   0 AccDes= 0.00D+00.
 End of G2Drv F.D. properties file   721 does not exist.
 End of G2Drv F.D. properties file   722 does not exist.
 End of G2Drv F.D. properties file   788 does not exist.
          IDoAtm=1111111111111111111
          Differentiating once with respect to nuclear coordinates.
          Electric field/nuclear overlap derivatives assumed to be zero.
 Keep J ints in memory in canonical form, NReq=1861376.
          There are    60 degrees of freedom in the 1st order CPHF.  IDoFFX=5 NUNeed=    60.
 LinEq1:  Iter=  0 NonCon=    57 RMS=1.42D-02 Max=1.63D-01 NDo=    57
 AX will form    60 AO Fock derivatives at one time.
 LinEq1:  Iter=  1 NonCon=    57 RMS=6.22D-03 Max=1.09D-01 NDo=    60
 LinEq1:  Iter=  2 NonCon=    57 RMS=1.10D-03 Max=1.04D-02 NDo=    60
 LinEq1:  Iter=  3 NonCon=    57 RMS=2.15D-04 Max=2.93D-03 NDo=    60
 LinEq1:  Iter=  4 NonCon=    57 RMS=7.23D-05 Max=6.52D-04 NDo=    60
 LinEq1:  Iter=  5 NonCon=    57 RMS=2.64D-05 Max=2.62D-04 NDo=    60
 LinEq1:  Iter=  6 NonCon=    57 RMS=6.71D-06 Max=6.47D-05 NDo=    60
 LinEq1:  Iter=  7 NonCon=    57 RMS=1.39D-06 Max=1.46D-05 NDo=    60
 LinEq1:  Iter=  8 NonCon=    57 RMS=3.31D-07 Max=3.78D-06 NDo=    60
 LinEq1:  Iter=  9 NonCon=    34 RMS=7.96D-08 Max=8.64D-07 NDo=    60
 LinEq1:  Iter= 10 NonCon=     5 RMS=1.67D-08 Max=1.32D-07 NDo=    34
 LinEq1:  Iter= 11 NonCon=     0 RMS=2.92D-09 Max=3.02D-08 NDo=     5
 Linear equations converged to 1.000D-08 1.000D-07 after    11 iterations.
 End of Minotr F.D. properties file   721 does not exist.
 End of Minotr F.D. properties file   722 does not exist.
 End of Minotr F.D. properties file   788 does not exist.
 Calling FoFJK, ICntrl=    100127 FMM=F ISym2X=0 I1Cent= 0 IOpClX= 0 NMat=1 NMatS=1 NMatT=0.
 -------------------------------------------------------------------
 Center     Atomic                   Forces (Hartrees/Bohr)
 Number     Number              X              Y              Z
 -------------------------------------------------------------------
      1        6          -0.000030387   -0.000153856    0.000361049
      2        6          -0.000089989   -0.000062218    0.000078323
      3        6          -0.000359718   -0.000034568   -0.000675310
      4        6          -0.000640874    0.000025850   -0.000839347
      5        6          -0.000557687   -0.000170550   -0.000348467
      6        6          -0.000205678   -0.000212982    0.000245186
      7        1          -0.000071039   -0.000009052   -0.000080719
      8        1           0.000011700   -0.000010309    0.000064964
      9        1           0.000002553    0.000000552    0.000028934
     10        6          -0.000934885   -0.000535972   -0.002859332
     11        6          -0.001801881    0.000175532   -0.002892297
[...]
      PEZero:  N= 2 I= 1 D=  1.40D-03 Err=  2.01D-02
      PEZero:  N= 3 I= 2 D=  1.40D-03 Err=  3.14D-02
      PEZero:  N= 3 I= 1 D=  2.81D-03 Err=  2.69D-02
      PEZero:  N= 4 I= 3 D=  7.01D-04 Err=  4.97D-02
      PEZero:  N= 4 I= 2 D=  2.10D-03 Err=  3.49D-02
      PEZero:  N= 4 I= 1 D=  3.51D-03 Err=  2.58D-02
      PEZero:  N= 5 I= 4 D=  7.01D-04 Err=  6.67D-02
      PEZero:  N= 5 I= 3 D=  1.40D-03 Err=  5.04D-02
      PEZero:  N= 5 I= 2 D=  2.81D-03 Err=  3.29D-02
      PEZero:  N= 5 I= 1 D=  4.21D-03 Err=  2.43D-02
      PEZero:  N= 6 I= 5 D=  3.51D-04 Err=  9.76D-02
      PEZero:  N= 6 I= 4 D=  1.05D-03 Err=  6.34D-02
      PEZero:  N= 6 I= 3 D=  1.75D-03 Err=  4.59D-02
      PEZero:  N= 6 I= 2 D=  3.16D-03 Err=  2.98D-02
      PEZero:  N= 6 I= 1 D=  4.56D-03 Err=  2.19D-02
      PEZero:  N= 7 I= 6 D=  3.51D-04 Err=  2.81D-05
      PEZero:  N= 7 I= 5 D=  7.01D-04 Err=  9.76D-02
      PEZero:  N= 8 I= 7 D=  1.75D-04 Err=  8.02D-07
      PEZero:  N= 8 I= 6 D=  5.26D-04 Err=  2.81D-05
 Maximum DWI energy   std dev =  0.000000034 at pt    29
 Maximum DWI gradient std dev =  0.089621728 at pt   380
 CORRECTOR INTEGRATION CONVERGENCE:
   Recorrection delta-x convergence threshold:    0.010000
   Delta-x Convergence Met
 Point Number:  53          Path Number:   2
   CHANGE IN THE REACTION COORDINATE =    0.26928
   NET REACTION COORDINATE UP TO THIS POINT =   14.26094
  # OF POINTS ALONG THE PATH =  98
  # OF STEPS =   1

 PES minimum detected on this side of the pathway.
    Magnitude of the gradient =      0.0001354
 Calculation of REVERSE path complete.
 Reaction path calculation complete.
 
 Energies reported relative to the TS energy of          -0.003729
 --------------------------------------------------------------------------
    Summary of reaction path following
 --------------------------------------------------------------------------
                        Energy    RxCoord
   1                   -0.07514 -14.26094
   2                   -0.07510 -13.99166
   3                   -0.07506 -13.72238
   4                   -0.07500 -13.45310
   5                   -0.07494 -13.18382
   6                   -0.07487 -12.91454
   7                   -0.07479 -12.64526
   8                   -0.07470 -12.37598
   9                   -0.07460 -12.10670
  10                   -0.07450 -11.83742
  11                   -0.07439 -11.56814
  12                   -0.07426 -11.29886
  13                   -0.07413 -11.02958
  14                   -0.07400 -10.76030
  15                   -0.07385 -10.49103
  16                   -0.07370 -10.22177
  17                   -0.07353  -9.95250
  18                   -0.07336  -9.68325
  19                   -0.07318  -9.41400
  20                   -0.07299  -9.14477
  21                   -0.07278  -8.87554
  22                   -0.07257  -8.60632
  23                   -0.07234  -8.33711
  24                   -0.07209  -8.06792
  25                   -0.07183  -7.79874
  26                   -0.07156  -7.52959
  27                   -0.07125  -7.26050
  28                   -0.07092  -6.99148
  29                   -0.07056  -6.72256
  30                   -0.07015  -6.45372
  31                   -0.06967  -6.18489
  32                   -0.06911  -5.91603
  33                   -0.06845  -5.64711
  34                   -0.06767  -5.37818
  35                   -0.06674  -5.10936
  36                   -0.06563  -4.84079
  37                   -0.06427  -4.57253
  38                   -0.06254  -4.30430
  39                   -0.06031  -4.03612
  40                   -0.05742  -3.76805
  41                   -0.05368  -3.49957
  42                   -0.04899  -3.23065
  43                   -0.04347  -2.96151
  44                   -0.03735  -2.69229
  45                   -0.03091  -2.42304
  46                   -0.02447  -2.15379
  47                   -0.01835  -1.88453
  48                   -0.01287  -1.61527
  49                   -0.00830  -1.34601
  50                   -0.00479  -1.07677
  51                   -0.00238  -0.80754
  52                   -0.00092  -0.53834
  53                   -0.00020  -0.26920
  54                    0.00000   0.00000
  55                   -0.00015   0.26920
  56                   -0.00050   0.53839
  57                   -0.00098   0.80761
  58                   -0.00151   1.07684
  59                   -0.00207   1.34608
  60                   -0.00262   1.61533
  61                   -0.00315   1.88457
  62                   -0.00365   2.15382
  63                   -0.00411   2.42307
  64                   -0.00455   2.69233
  65                   -0.00494   2.96159
  66                   -0.00531   3.23085
  67                   -0.00564   3.50012
  68                   -0.00595   3.76938
  69                   -0.00623   4.03865
  70                   -0.00649   4.30793
  71                   -0.00673   4.57720
  72                   -0.00695   4.84647
  73                   -0.00716   5.11575
  74                   -0.00735   5.38503
  75                   -0.00752   5.65431
  76                   -0.00768   5.92359
  77                   -0.00784   6.19287
  78                   -0.00798   6.46215
  79                   -0.00811   6.73143
  80                   -0.00823   7.00071
  81                   -0.00835   7.26999
  82                   -0.00846   7.53927
  83                   -0.00856   7.80855
  84                   -0.00865   8.07782
  85                   -0.00874   8.34709
  86                   -0.00882   8.61635
  87                   -0.00890   8.88561
  88                   -0.00897   9.15487
  89                   -0.00904   9.42413
  90                   -0.00910   9.69339
  91                   -0.00917   9.96264
  92                   -0.00922  10.23190
  93                   -0.00928  10.50116
  94                   -0.00933  10.77042
  95                   -0.00938  11.03969
  96                   -0.00943  11.30895
  97                   -0.00948  11.57821
  98                   -0.00952  11.84747
  99                   -0.00956  12.11672
 --------------------------------------------------------------------------
 
 Total number of points:                   98
 Total number of gradient calculations:    99
 Total number of Hessian calculations:     99
 IRC-IRC-IRC-IRC-IRC-IRC-IRC-IRC-IRC-IRC-IRC-IRC-IRC-IRC-IRC-IRC-IRC-IRC
                          Input orientation:                          
 ---------------------------------------------------------------------
 Center     Atomic      Atomic             Coordinates (Angstroms)
 Number     Number       Type             X           Y           Z
 ---------------------------------------------------------------------
      1          6           0       -2.540191   -1.870424   -0.423591
      2          6           0       -1.150335   -1.976052   -0.346277
      3          6           0       -0.353038   -0.819801   -0.349025
      4          6           0       -0.969175    0.445692   -0.417299
      5          6           0       -2.363970    0.543109   -0.491542
      6          6           0       -3.148315   -0.612418   -0.500728
      7          1           0        1.554584   -0.764305   -1.318871
      8          1           0       -3.153234   -2.770857   -0.424325
      9          1           0       -0.684817   -2.958155   -0.289808
     10          6           0        1.125568   -0.920839   -0.304958
     11          6           0       -0.107043    1.674396   -0.350906
     12          1           0       -2.839788    1.522022   -0.538955
     13          1           0       -4.232256   -0.534205   -0.562759
     14          1           0       -0.675715    2.599820   -0.128593
     15         16           0        1.875589    0.297795    0.856106
     16          8           0        3.120024    0.683494    0.188544
     17          8           0        0.771474    1.563560    0.775345
     18          1           0        0.485410    1.828155   -1.272999
     19          1           0        1.476311   -1.925493   -0.005054
 ---------------------------------------------------------------------
                    Distance matrix (angstroms):
                    1          2          3          4          5
     1  C    0.000000
     2  C    1.396007   0.000000
     3  C    2.427552   1.404495   0.000000
     4  C    2.798665   2.429548   1.409170   0.000000
     5  C    2.420912   2.800033   2.433450   1.400162   0.000000
     6  C    1.399408   2.423896   2.807061   2.423883   1.396612
     7  H    4.334998   3.119432   2.140724   2.940456   4.212940
     8  H    1.089312   2.156250   3.413706   3.887975   3.407320
     9  H    2.154871   1.088312   2.164750   3.418082   3.888329
    10  C    3.788612   2.508967   1.482709   2.503593   3.788777
    11  C    4.300145   3.796610   2.506300   1.502463   2.528499
    12  H    3.407603   3.889459   3.421131   2.161592   1.089459
    13  H    2.160540   3.409402   3.895585   3.410140   2.157817
    14  H    4.852461   4.605567   3.441877   2.193111   2.685516
    15  S    5.083101   3.971438   2.769141   3.120275   4.455355
    16  O    6.239811   5.059168   3.822438   4.140670   5.527785
    17  O    4.919027   4.180938   2.865161   2.387863   3.532327
    18  H    4.853375   4.243402   2.927182   2.181569   3.221953
    19  H    4.038625   2.649199   2.165038   3.431161   4.591124
                    6          7          8          9         10
     6  C    0.000000
     7  H    4.775948   0.000000
     8  H    2.159796   5.195191   0.000000
     9  H    3.408194   3.299525   2.479165   0.000000
    10  C    4.289466   1.112014   4.663150   2.725506   0.000000
    11  C    3.808058   3.105675   5.389337   4.668842   2.873445
    12  H    2.156962   5.014585   4.305833   4.977746   4.663301
    13  H    1.088528   5.840562   2.487180   4.305154   5.377939
    14  H    4.070714   4.208126   5.921970   5.560320   3.958632
    15  S    5.282906   2.441644   6.028697   4.297675   1.842735
    16  O    6.437900   2.611326   7.187622   5.288406   2.606776
    17  O    4.661329   3.227686   5.969063   4.868392   2.732156
    18  H    4.444857   2.804653   5.925444   5.024426   2.983935
    19  H    4.832910   1.755164   4.724734   2.412043   1.105574
                   11         12         13         14         15
    11  C    0.000000
    12  H    2.743443   0.000000
    13  H    4.684035   2.483466   0.000000
    14  H    1.108702   2.452195   4.760210   0.000000
    15  S    2.698655   5.067515   6.325438   3.574647   0.000000
    16  O    3.418604   6.062322   7.490211   4.263861   1.463906
    17  O    1.432662   3.843219   5.588243   1.996320   1.681592
    18  H    1.106751   3.418989   5.323679   1.803703   2.967775
    19  H    3.947889   5.549696   5.902072   5.012478   2.417443
                   16         17         18         19
    16  O    0.000000
    17  O    2.575760   0.000000
    18  H    3.222972   2.085080   0.000000
    19  H    3.089674   3.644079   4.084047   0.000000
 Symmetry turned off by external request.
 Stoichiometry    C8H8O2S
 Framework group  C1[X(C8H8O2S)]
 Deg. of freedom    51
 Full point group                 C1      NOp   1
 Rotational constants (GHZ):           2.4186592           0.6905480           0.5684766

 **********************************************************************

            Population analysis using the SCF Density.

 **********************************************************************

 Alpha  occ. eigenvalues --   -1.15976  -1.11229  -1.07154  -1.00408  -0.98266
 Alpha  occ. eigenvalues --   -0.91675  -0.87083  -0.80670  -0.78776  -0.71688
 Alpha  occ. eigenvalues --   -0.65353  -0.62149  -0.61065  -0.58661  -0.56317
 Alpha  occ. eigenvalues --   -0.54452  -0.53554  -0.52747  -0.51854  -0.49440
 Alpha  occ. eigenvalues --   -0.47644  -0.46801  -0.45627  -0.44899  -0.40694
 Alpha  occ. eigenvalues --   -0.39926  -0.36632  -0.35907  -0.32605
 Alpha virt. eigenvalues --   -0.00519  -0.00222   0.01035   0.03073   0.04478
 Alpha virt. eigenvalues --    0.08333   0.11278   0.12338   0.13329   0.15699
 Alpha virt. eigenvalues --    0.16407   0.16872   0.17351   0.17571   0.18314
 Alpha virt. eigenvalues --    0.19026   0.19521   0.19905   0.20428   0.20776
 Alpha virt. eigenvalues --    0.20997   0.21368   0.21501   0.21779   0.22141
 Alpha virt. eigenvalues --    0.23001   0.23415   0.26621
          Condensed to atoms (all electrons):
               1          2          3          4          5          6
     1  C    4.110839   0.000000   0.000000   0.000000   0.000000   0.000000
     2  C    0.000000   4.206677   0.000000   0.000000   0.000000   0.000000
     3  C    0.000000   0.000000   3.907016   0.000000   0.000000   0.000000
     4  C    0.000000   0.000000   0.000000   4.102346   0.000000   0.000000
     5  C    0.000000   0.000000   0.000000   0.000000   4.123435   0.000000
     6  C    0.000000   0.000000   0.000000   0.000000   0.000000   4.167083
     7  H    0.000000   0.000000   0.000000   0.000000   0.000000   0.000000
     8  H    0.000000   0.000000   0.000000   0.000000   0.000000   0.000000
     9  H    0.000000   0.000000   0.000000   0.000000   0.000000   0.000000
    10  C    0.000000   0.000000   0.000000   0.000000   0.000000   0.000000
    11  C    0.000000   0.000000   0.000000   0.000000   0.000000   0.000000
    12  H    0.000000   0.000000   0.000000   0.000000   0.000000   0.000000
    13  H    0.000000   0.000000   0.000000   0.000000   0.000000   0.000000
    14  H    0.000000   0.000000   0.000000   0.000000   0.000000   0.000000
    15  S    0.000000   0.000000   0.000000   0.000000   0.000000   0.000000
    16  O    0.000000   0.000000   0.000000   0.000000   0.000000   0.000000
    17  O    0.000000   0.000000   0.000000   0.000000   0.000000   0.000000
    18  H    0.000000   0.000000   0.000000   0.000000   0.000000   0.000000
    19  H    0.000000   0.000000   0.000000   0.000000   0.000000   0.000000
               7          8          9         10         11         12
     1  C    0.000000   0.000000   0.000000   0.000000   0.000000   0.000000
     2  C    0.000000   0.000000   0.000000   0.000000   0.000000   0.000000
     3  C    0.000000   0.000000   0.000000   0.000000   0.000000   0.000000
     4  C    0.000000   0.000000   0.000000   0.000000   0.000000   0.000000
     5  C    0.000000   0.000000   0.000000   0.000000   0.000000   0.000000
     6  C    0.000000   0.000000   0.000000   0.000000   0.000000   0.000000
     7  H    0.792093   0.000000   0.000000   0.000000   0.000000   0.000000
     8  H    0.000000   0.853986   0.000000   0.000000   0.000000   0.000000
     9  H    0.000000   0.000000   0.846067   0.000000   0.000000   0.000000
    10  C    0.000000   0.000000   0.000000   4.611403   0.000000   0.000000
    11  C    0.000000   0.000000   0.000000   0.000000   4.018025   0.000000
    12  H    0.000000   0.000000   0.000000   0.000000   0.000000   0.850885
    13  H    0.000000   0.000000   0.000000   0.000000   0.000000   0.000000
    14  H    0.000000   0.000000   0.000000   0.000000   0.000000   0.000000
    15  S    0.000000   0.000000   0.000000   0.000000   0.000000   0.000000
    16  O    0.000000   0.000000   0.000000   0.000000   0.000000   0.000000
    17  O    0.000000   0.000000   0.000000   0.000000   0.000000   0.000000
    18  H    0.000000   0.000000   0.000000   0.000000   0.000000   0.000000
    19  H    0.000000   0.000000   0.000000   0.000000   0.000000   0.000000
              13         14         15         16         17         18
     1  C    0.000000   0.000000   0.000000   0.000000   0.000000   0.000000
     2  C    0.000000   0.000000   0.000000   0.000000   0.000000   0.000000
     3  C    0.000000   0.000000   0.000000   0.000000   0.000000   0.000000
     4  C    0.000000   0.000000   0.000000   0.000000   0.000000   0.000000
     5  C    0.000000   0.000000   0.000000   0.000000   0.000000   0.000000
     6  C    0.000000   0.000000   0.000000   0.000000   0.000000   0.000000
     7  H    0.000000   0.000000   0.000000   0.000000   0.000000   0.000000
     8  H    0.000000   0.000000   0.000000   0.000000   0.000000   0.000000
     9  H    0.000000   0.000000   0.000000   0.000000   0.000000   0.000000
    10  C    0.000000   0.000000   0.000000   0.000000   0.000000   0.000000
    11  C    0.000000   0.000000   0.000000   0.000000   0.000000   0.000000
    12  H    0.000000   0.000000   0.000000   0.000000   0.000000   0.000000
    13  H    0.848978   0.000000   0.000000   0.000000   0.000000   0.000000
    14  H    0.000000   0.845719   0.000000   0.000000   0.000000   0.000000
    15  S    0.000000   0.000000   4.779397   0.000000   0.000000   0.000000
    16  O    0.000000   0.000000   0.000000   6.699613   0.000000   0.000000
    17  O    0.000000   0.000000   0.000000   0.000000   6.562150   0.000000
    18  H    0.000000   0.000000   0.000000   0.000000   0.000000   0.863602
    19  H    0.000000   0.000000   0.000000   0.000000   0.000000   0.000000
              19
     1  C    0.000000
     2  C    0.000000
     3  C    0.000000
     4  C    0.000000
     5  C    0.000000
     6  C    0.000000
     7  H    0.000000
     8  H    0.000000
     9  H    0.000000
    10  C    0.000000
    11  C    0.000000
    12  H    0.000000
    13  H    0.000000
    14  H    0.000000
    15  S    0.000000
    16  O    0.000000
    17  O    0.000000
    18  H    0.000000
    19  H    0.810688
 Mulliken charges:
               1
     1  C   -0.110839
     2  C   -0.206677
     3  C    0.092984
     4  C   -0.102346
     5  C   -0.123435
     6  C   -0.167083
     7  H    0.207907
     8  H    0.146014
     9  H    0.153933
    10  C   -0.611403
    11  C   -0.018025
    12  H    0.149115
    13  H    0.151022
    14  H    0.154281
    15  S    1.220603
    16  O   -0.699613
    17  O   -0.562150
    18  H    0.136398
    19  H    0.189312
 Sum of Mulliken charges =   0.00000
 Mulliken charges with hydrogens summed into heavy atoms:
               1
     1  C    0.035175
     2  C   -0.052744
     3  C    0.092984
     4  C   -0.102346
     5  C    0.025680
     6  C   -0.016061
    10  C   -0.214184
    11  C    0.272654
    15  S    1.220603
    16  O   -0.699613
    17  O   -0.562150
 APT charges:
               1
     1  C   -0.110839
     2  C   -0.206677
     3  C    0.092984
     4  C   -0.102346
     5  C   -0.123435
     6  C   -0.167083
     7  H    0.207907
     8  H    0.146014
     9  H    0.153933
    10  C   -0.611403
    11  C   -0.018025
    12  H    0.149115
    13  H    0.151022
    14  H    0.154281
    15  S    1.220603
    16  O   -0.699613
    17  O   -0.562150
    18  H    0.136398
    19  H    0.189312
 Sum of APT charges =   0.00000
 APT charges with hydrogens summed into heavy atoms:
               1
     1  C    0.035175
     2  C   -0.052744
     3  C    0.092984
     4  C   -0.102346
     5  C    0.025680
     6  C   -0.016061
    10  C   -0.214184
    11  C    0.272654
    15  S    1.220603
    16  O   -0.699613
    17  O   -0.562150
 Charge=              0.0000 electrons
 Dipole moment (field-independent basis, Debye):
    X=             -3.3331    Y=             -2.3355    Z=             -0.1503  Tot=              4.0727
 N-N= 3.410667782261D+02 E-N=-5.348688205073D+02  KE=-1.098374343041D+02
  Exact polarizability:       0.000       0.000       0.000       0.000       0.000       0.000
 Approx polarizability:     110.614      -0.292      92.484       3.862       0.953      29.027
