 Default is to use a total of   8 processors:
                                8 via shared-memory
                                1 via Linda
 Entering Link 1 = C:\G16W\l1.exe PID=     20620.
  
 Copyright (c) 1988-2019, Gaussian, Inc.  All Rights Reserved.
  
 This is part of the Gaussian(R) 16 program.  It is based on
 the Gaussian(R) 09 system (copyright 2009, Gaussian, Inc.),
 the Gaussian(R) 03 system (copyright 2003, Gaussian, Inc.),
 the Gaussian(R) 98 system (copyright 1998, Gaussian, Inc.),
 the Gaussian(R) 94 system (copyright 1995, Gaussian, Inc.),
 the Gaussian 92(TM) system (copyright 1992, Gaussian, Inc.),
 the Gaussian 90(TM) system (copyright 1990, Gaussian, Inc.),
 the Gaussian 88(TM) system (copyright 1988, Gaussian, Inc.),
 the Gaussian 86(TM) system (copyright 1986, Carnegie Mellon
 University), and the Gaussian 82(TM) system (copyright 1983,
 Carnegie Mellon University). Gaussian is a federally registered
 trademark of Gaussian, Inc.
  
 This software contains proprietary and confidential information,
 including trade secrets, belonging to Gaussian, Inc.
  
 This software is provided under written license and may be
 used, copied, transmitted, or stored only in accord with that
 written license.
  
 The following legend is applicable only to US Government
 contracts under FAR:
  
                    RESTRICTED RIGHTS LEGEND
  
 Use, reproduction and disclosure by the US Government is
 subject to restrictions as set forth in subparagraphs (a)
 and (c) of the Commercial Computer Software - Restricted
 Rights clause in FAR 52.227-19.
  
 Gaussian, Inc.
 340 Quinnipiac St., Bldg. 40, Wallingford CT 06492
  
  
 ---------------------------------------------------------------
 Warning -- This program may not be used in any manner that
 competes with the business of Gaussian, Inc. or will provide
 assistance to any competitor of Gaussian, Inc.  The licensee
 of this program is prohibited from giving any competitor of
 Gaussian, Inc. access to this program.  By using this program,
 the user acknowledges that Gaussian, Inc. is engaged in the
 business of creating and licensing software in the field of
 computational chemistry and represents and warrants to the
 licensee that it is not a competitor of Gaussian, Inc. and that
 it will not use this program in any manner prohibited above.
 ---------------------------------------------------------------
  

 Cite this work as:
 Gaussian 16, Revision C.01,
 M. J. Frisch, G. W. Trucks, H. B. Schlegel, G. E. Scuseria, 
 M. A. Robb, J. R. Cheeseman, G. Scalmani, V. Barone, 
 G. A. Petersson, H. Nakatsuji, X. Li, M. Caricato, A. V. Marenich, 
 J. Bloino, B. G. Janesko, R. Gomperts, B. Mennucci, H. P. Hratchian, 
 J. V. Ortiz, A. F. Izmaylov, J. L. Sonnenberg, D. Williams-Young, 
 F. Ding, F. Lipparini, F. Egidi, J. Goings, B. Peng, A. Petrone, 
 T. Henderson, D. Ranasinghe, V. G. Zakrzewski, J. Gao, N. Rega, 
 G. Zheng, W. Liang, M. Hada, M. Ehara, K. Toyota, R. Fukuda, 
 J. Hasegawa, M. Ishida, T. Nakajima, Y. Honda, O. Kitao, H. Nakai, 
 T. Vreven, K. Throssell, J. A. Montgomery, Jr., J. E. Peralta, 
 F. Ogliaro, M. J. Bearpark, J. J. Heyd, E. N. Brothers, K. N. Kudin, 
 V. N. Staroverov, T. A. Keith, R. Kobayashi, J. Normand, 
 K. Raghavachari, A. P. Rendell, J. C. Burant, S. S. Iyengar, 
 J. Tomasi, M. Cossi, J. M. Millam, M. Klene, C. Adamo, R. Cammi, 
 J. W. Ochterski, R. L. Martin, K. Morokuma, O. Farkas, 
 J. B. Foresman, and D. J. Fox, Gaussian, Inc., Wallingford CT, 2019.
 
 ******************************************
 Gaussian 16:  EM64W-G16RevC.01 30-May-2019
                15-Nov-2025 
 ******************************************
 %chk=C:\Users\al6323\OneDrive - Imperial College London\Desktop\TSR20251115\Exer
 cise 3\DA reaction\TS_endo_Berny_IRC.chk
 Default route: MaxDisk=10GB
 ---------------------------------------------------------------------
 # irc=(calcall,maxpoints=100) rpm6 nosymm geom=connectivity scf=tight
 ---------------------------------------------------------------------
 1/10=4,18=10,26=1,38=1,42=100,44=3,57=2,71=1,172=1/1,23;
 2/12=2,15=1,17=6,18=5,29=1,40=1/2;
 3/5=2,25=1,41=3900000,71=2,116=1,140=1/1,2,3;
 4/35=1/1;
 5/5=2,32=2,35=1,38=5/2;
 8/6=4,10=90,11=11/1;
 11/6=1,8=1,9=11,15=111,16=1,31=1/1,2,10;
 10/6=1,13=1,31=1/2;
 6/7=2,8=2,9=2,10=2,18=1,28=1/1;
 7/10=1,25=1,30=1/1,2,3,16;
 1/10=4,18=10,26=1,42=100,44=3,71=1/23(2);
 2/15=1,29=1/2;
 99/5=20/99;
 2/15=1,29=1/2;
 3/5=2,25=1,41=3900000,71=2,116=1,135=20,140=1/1,2,3;
 4/5=5,16=3,35=1/1;
 5/5=2,32=2,35=1,38=5/2;
 8/6=4,10=90,11=11/1;
 11/6=1,8=1,9=11,15=111,16=1,31=1/1,2,10;
 10/6=1,13=1,31=1/2;
 7/10=1,25=1,30=1/1,2,3,16;
 1/10=4,18=10,26=1,42=100,44=3,71=1/23(-8);
 2/15=1,29=1/2;
 6/7=2,8=2,9=2,10=2,18=1,19=2,28=1/1;
 99/5=20/99;
 -------------------
 Title Card Required
 -------------------
 Symbolic Z-matrix:
 Charge =  0 Multiplicity = 1
 C                    -5.61571  -1.61359  -0.10341 
 C                    -4.24111  -1.70767  -0.31063 
 C                    -3.41407  -0.5699   -0.23107 
 C                    -3.99895   0.67932   0.06389 
 C                    -5.38913   0.76126   0.2712 
 C                    -6.19379  -0.37321   0.18909 
 H                    -1.78497  -1.21117  -1.4759 
 H                    -6.23925  -2.50361  -0.1689 
 H                    -3.79951  -2.67675  -0.53776 
 C                    -1.95016  -0.7786   -0.47032 
 C                    -3.25042   1.96189   0.17913 
 H                    -5.84401   1.72511   0.49928 
 H                    -7.2669   -0.29466   0.35173 
 H                    -3.21944   2.43303   1.17957 
 O                    -1.97274   1.73309  -1.15435 
 S                    -1.02585   0.78662  -0.33114 
 O                    -1.67662   1.36883   0.97562 
 H                    -3.46452   2.73446  -0.58317 
 H                    -1.54398  -1.50758   0.25715 
 
 IRC-IRC-IRC-IRC-IRC-IRC-IRC-IRC-IRC-IRC-IRC-IRC-IRC-IRC-IRC-IRC-IRC-IRC
 ------------------------------------------------------------------------
 INPUT DATA FOR L123
 ------------------------------------------------------------------------
 GENERAL PARAMETERS:
 Follow reaction path in both directions.
 Maximum points per path      = 100
 Step size                    =   0.100 bohr
 Integration scheme           = HPC                                 
    Redo corrector integration= Yes                                 
    DWI Weight Power          =  2
    DWI will use Hessian update vectors when possible.
    Max correction cycles     =  20
 Initial Hessian              = CalcFC
 Hessian evaluation           = Analytic at all predictor steps
                              = Update at all corrector steps
 Hessian updating method      = Bofill                              
 ------------------------------------------------------------------------
 IRC-IRC-IRC-IRC-IRC-IRC-IRC-IRC-IRC-IRC-IRC-IRC-IRC-IRC-IRC-IRC-IRC-IRC
                          Input orientation:                          
 ---------------------------------------------------------------------
 Center     Atomic      Atomic             Coordinates (Angstroms)
 Number     Number       Type             X           Y           Z
 ---------------------------------------------------------------------
      1          6           0       -5.615712   -1.613593   -0.103408
      2          6           0       -4.241114   -1.707665   -0.310632
      3          6           0       -3.414069   -0.569901   -0.231068
      4          6           0       -3.998954    0.679322    0.063887
      5          6           0       -5.389133    0.761256    0.271201
      6          6           0       -6.193790   -0.373206    0.189088
      7          1           0       -1.784965   -1.211170   -1.475898
      8          1           0       -6.239251   -2.503611   -0.168904
      9          1           0       -3.799511   -2.676746   -0.537756
     10          6           0       -1.950161   -0.778597   -0.470317
     11          6           0       -3.250423    1.961887    0.179133
     12          1           0       -5.844012    1.725111    0.499278
     13          1           0       -7.266900   -0.294660    0.351735
     14          1           0       -3.219439    2.433032    1.179569
     15          8           0       -1.972740    1.733092   -1.154349
     16         16           0       -1.025851    0.786619   -0.331142
     17          8           0       -1.676616    1.368829    0.975616
     18          1           0       -3.464525    2.734460   -0.583167
     19          1           0       -1.543981   -1.507579    0.257146
 ---------------------------------------------------------------------
                    Distance matrix (angstroms):
                    1          2          3          4          5
     1  C    0.000000
     2  C    1.393309   0.000000
     3  C    2.439841   1.408844   0.000000
     4  C    2.810579   2.428294   1.410548   0.000000
     5  C    2.414867   2.784250   2.434160   1.407938   0.000000
     6  C    1.399389   2.417322   2.818168   2.437375   1.393277
     7  H    4.089046   2.763516   2.148210   3.293424   4.464622
     8  H    1.088679   2.155497   3.424143   3.899254   3.402316
     9  H    2.148846   1.088906   2.163659   3.415398   3.873134
    10  C    3.777315   2.477324   1.497939   2.570692   3.840251
    11  C    4.296333   3.832356   2.570018   1.489481   2.454398
    12  H    3.400338   3.874169   3.421273   2.165059   1.089931
    13  H    2.161749   3.404510   3.906369   3.422129   2.155795
    14  H    4.874764   4.517731   3.323459   2.219885   2.885747
    15  O    5.057274   4.206684   2.869434   2.588450   3.827322
    16  S    5.184564   4.069372   2.748407   3.001150   4.404734
    17  O    5.057234   4.206650   2.869408   2.588422   3.827287
    18  H    4.874766   4.517725   3.323450   2.219884   2.885757
    19  H    4.089038   2.763500   2.148213   3.293444   4.464639
                    6          7          8          9         10
     6  C    0.000000
     7  H    4.786659   0.000000
     8  H    2.160753   4.818641   0.000000
     9  H    3.401054   2.662033   2.473531   0.000000
    10  C    4.313647   1.107069   4.632798   2.650965   0.000000
    11  C    3.757149   3.867167   5.384691   4.725710   3.102051
    12  H    2.149766   5.385065   4.299392   4.963040   4.729773
    13  H    1.088204   5.850798   2.491303   4.299803   5.401637
    14  H    4.207468   4.731747   5.942061   5.421763   3.827238
    15  O    4.904954   2.967715   6.092936   4.812894   2.603266
    16  S    5.321976   2.424434   6.166966   4.441934   1.823079
    17  O    4.904914   3.560626   6.092894   4.812864   2.603265
    18  H    4.207476   4.380170   5.942063   5.421755   3.827219
    19  H    4.786665   1.774647   4.818626   2.661999   1.107068
                   11         12         13         14         15
    11  C    0.000000
    12  H    2.623978   0.000000
    13  H    4.610193   2.475046   0.000000
    14  H    1.106259   2.802201   4.950510   0.000000
    15  O    1.860912   4.209667   5.865849   2.737032   0.000000
    16  S    2.567169   4.978458   6.370727   3.131254   1.571649
    17  O    1.860907   4.209635   5.865808   1.885319   2.181085
    18  H    1.106260   2.802219   4.950521   1.805039   1.885314
    19  H    3.867198   5.385088   5.850805   4.380232   3.560632
                   16         17         18         19
    16  S    0.000000
    17  O    1.571649   0.000000
    18  H    3.131251   2.737037   0.000000
    19  H    2.424435   2.967745   4.731755   0.000000
 Symmetry turned off by external request.
 Stoichiometry    C8H8O2S
 Framework group  C1[X(C8H8O2S)]
 Deg. of freedom    51
 Full point group                 C1      NOp   1
 Rotational constants (GHZ):           2.2772918           0.7822043           0.6434102
 Standard basis: VSTO-6G (5D, 7F)
    57 basis functions,   348 primitive gaussians,    58 cartesian basis functions
    29 alpha electrons       29 beta electrons
       nuclear repulsion energy       347.9201753803 Hartrees.
 Integral buffers will be    131072 words long.
 Regular integral format.
 Two-electron integral symmetry is turned off.
 Do NDO integrals.
 One-electron integrals computed using PRISM.
 NBasis=    57 RedAO= F EigKep=  0.00D+00  NBF=    57
 NBsUse=    57 1.00D-04 EigRej=  0.00D+00 NBFU=    57
 Nonelectrostatic core Hamiltonian diagonalized for initial guess.
 Keep J ints in memory in canonical form, NReq=1859402.
 Overlap will be assumed to be unity.
 Requested convergence on RMS density matrix=1.00D-08 within 128 cycles.
 Requested convergence on MAX density matrix=1.00D-06.
 Requested convergence on             energy=1.00D-06.
 No special actions if energy rises.
 SCF Done:  E(RPM6) =  0.126586830634E-01 A.U. after   21 cycles
            NFock= 20  Conv=0.60D-08     -V/T= 1.0001
 Range of M.O.s used for correlation:     1    57
 NBasis=    57 NAE=    29 NBE=    29 NFC=     0 NFV=     0
 NROrb=     57 NOA=    29 NOB=    29 NVA=    28 NVB=    28
 Symmetrizing basis deriv contribution to polar:
 IMax=3 JMax=2 DiffMx= 0.00D+00
 G2DrvN: will do    20 centers at a time, making    1 passes.
 Calling FoFCou, ICntrl=  3107 FMM=F I1Cent=   0 AccDes= 0.00D+00.
 End of G2Drv F.D. properties file   721 does not exist.
 End of G2Drv F.D. properties file   722 does not exist.
 End of G2Drv F.D. properties file   788 does not exist.
          IDoAtm=1111111111111111111
          Differentiating once with respect to nuclear coordinates.
          Electric field/nuclear overlap derivatives assumed to be zero.
 Keep J ints in memory in canonical form, NReq=1861376.
          There are    60 degrees of freedom in the 1st order CPHF.  IDoFFX=5 NUNeed=    60.
 LinEq1:  Iter=  0 NonCon=    57 RMS=1.23D-02 Max=1.24D-01 NDo=    57
 AX will form    60 AO Fock derivatives at one time.
 LinEq1:  Iter=  1 NonCon=    57 RMS=3.88D-03 Max=4.44D-02 NDo=    60
 LinEq1:  Iter=  2 NonCon=    57 RMS=9.38D-04 Max=1.02D-02 NDo=    60
 LinEq1:  Iter=  3 NonCon=    57 RMS=1.95D-04 Max=2.24D-03 NDo=    60
 LinEq1:  Iter=  4 NonCon=    57 RMS=5.77D-05 Max=4.75D-04 NDo=    60
 LinEq1:  Iter=  5 NonCon=    57 RMS=1.35D-05 Max=1.53D-04 NDo=    60
 LinEq1:  Iter=  6 NonCon=    57 RMS=4.06D-06 Max=6.72D-05 NDo=    60
 LinEq1:  Iter=  7 NonCon=    57 RMS=1.12D-06 Max=1.16D-05 NDo=    60
 LinEq1:  Iter=  8 NonCon=    57 RMS=2.33D-07 Max=2.27D-06 NDo=    60
 LinEq1:  Iter=  9 NonCon=    31 RMS=5.85D-08 Max=4.61D-07 NDo=    60
 LinEq1:  Iter= 10 NonCon=     2 RMS=1.24D-08 Max=8.36D-08 NDo=    31
 LinEq1:  Iter= 11 NonCon=     0 RMS=2.82D-09 Max=2.15D-08 NDo=     2
 Linear equations converged to 1.000D-08 1.000D-07 after    11 iterations.
 End of Minotr F.D. properties file   721 does not exist.
 End of Minotr F.D. properties file   722 does not exist.
 End of Minotr F.D. properties file   788 does not exist.

 **********************************************************************

            Population analysis using the SCF Density.

 **********************************************************************

 Alpha  occ. eigenvalues --   -1.16429  -1.09766  -0.99871  -0.98662  -0.96255
 Alpha  occ. eigenvalues --   -0.91298  -0.85581  -0.78856  -0.78165  -0.70587
 Alpha  occ. eigenvalues --   -0.63174  -0.62464  -0.58921  -0.57860  -0.56433
 Alpha  occ. eigenvalues --   -0.53991  -0.52905  -0.51902  -0.49786  -0.47878
 Alpha  occ. eigenvalues --   -0.46300  -0.45686  -0.44972  -0.41161  -0.39554
 Alpha  occ. eigenvalues --   -0.37178  -0.35383  -0.34323  -0.34068
 Alpha virt. eigenvalues --    0.00595   0.00988   0.02257   0.02646   0.04155
 Alpha virt. eigenvalues --    0.04924   0.09202   0.12702   0.13956   0.16332
 Alpha virt. eigenvalues --    0.17260   0.17667   0.17991   0.18029   0.18682
 Alpha virt. eigenvalues --    0.19532   0.20320   0.20425   0.20629   0.20922
 Alpha virt. eigenvalues --    0.20993   0.21098   0.21368   0.22213   0.22438
 Alpha virt. eigenvalues --    0.22798   0.23073   0.23353
          Condensed to atoms (all electrons):
               1          2          3          4          5          6
     1  C    4.117986   0.000000   0.000000   0.000000   0.000000   0.000000
     2  C    0.000000   4.213160   0.000000   0.000000   0.000000   0.000000
     3  C    0.000000   0.000000   3.872947   0.000000   0.000000   0.000000
     4  C    0.000000   0.000000   0.000000   4.073326   0.000000   0.000000
     5  C    0.000000   0.000000   0.000000   0.000000   4.150283   0.000000
     6  C    0.000000   0.000000   0.000000   0.000000   0.000000   4.156829
     7  H    0.000000   0.000000   0.000000   0.000000   0.000000   0.000000
     8  H    0.000000   0.000000   0.000000   0.000000   0.000000   0.000000
     9  H    0.000000   0.000000   0.000000   0.000000   0.000000   0.000000
    10  C    0.000000   0.000000   0.000000   0.000000   0.000000   0.000000
    11  C    0.000000   0.000000   0.000000   0.000000   0.000000   0.000000
    12  H    0.000000   0.000000   0.000000   0.000000   0.000000   0.000000
    13  H    0.000000   0.000000   0.000000   0.000000   0.000000   0.000000
    14  H    0.000000   0.000000   0.000000   0.000000   0.000000   0.000000
    15  O    0.000000   0.000000   0.000000   0.000000   0.000000   0.000000
    16  S    0.000000   0.000000   0.000000   0.000000   0.000000   0.000000
    17  O    0.000000   0.000000   0.000000   0.000000   0.000000   0.000000
    18  H    0.000000   0.000000   0.000000   0.000000   0.000000   0.000000
    19  H    0.000000   0.000000   0.000000   0.000000   0.000000   0.000000
               7          8          9         10         11         12
     1  C    0.000000   0.000000   0.000000   0.000000   0.000000   0.000000
     2  C    0.000000   0.000000   0.000000   0.000000   0.000000   0.000000
     3  C    0.000000   0.000000   0.000000   0.000000   0.000000   0.000000
     4  C    0.000000   0.000000   0.000000   0.000000   0.000000   0.000000
     5  C    0.000000   0.000000   0.000000   0.000000   0.000000   0.000000
     6  C    0.000000   0.000000   0.000000   0.000000   0.000000   0.000000
     7  H    0.808862   0.000000   0.000000   0.000000   0.000000   0.000000
     8  H    0.000000   0.855368   0.000000   0.000000   0.000000   0.000000
     9  H    0.000000   0.000000   0.848225   0.000000   0.000000   0.000000
    10  C    0.000000   0.000000   0.000000   4.599075   0.000000   0.000000
    11  C    0.000000   0.000000   0.000000   0.000000   3.832297   0.000000
    12  H    0.000000   0.000000   0.000000   0.000000   0.000000   0.852095
    13  H    0.000000   0.000000   0.000000   0.000000   0.000000   0.000000
    14  H    0.000000   0.000000   0.000000   0.000000   0.000000   0.000000
    15  O    0.000000   0.000000   0.000000   0.000000   0.000000   0.000000
    16  S    0.000000   0.000000   0.000000   0.000000   0.000000   0.000000
    17  O    0.000000   0.000000   0.000000   0.000000   0.000000   0.000000
    18  H    0.000000   0.000000   0.000000   0.000000   0.000000   0.000000
    19  H    0.000000   0.000000   0.000000   0.000000   0.000000   0.000000
              13         14         15         16         17         18
     1  C    0.000000   0.000000   0.000000   0.000000   0.000000   0.000000
     2  C    0.000000   0.000000   0.000000   0.000000   0.000000   0.000000
     3  C    0.000000   0.000000   0.000000   0.000000   0.000000   0.000000
     4  C    0.000000   0.000000   0.000000   0.000000   0.000000   0.000000
     5  C    0.000000   0.000000   0.000000   0.000000   0.000000   0.000000
     6  C    0.000000   0.000000   0.000000   0.000000   0.000000   0.000000
     7  H    0.000000   0.000000   0.000000   0.000000   0.000000   0.000000
     8  H    0.000000   0.000000   0.000000   0.000000   0.000000   0.000000
     9  H    0.000000   0.000000   0.000000   0.000000   0.000000   0.000000
    10  C    0.000000   0.000000   0.000000   0.000000   0.000000   0.000000
    11  C    0.000000   0.000000   0.000000   0.000000   0.000000   0.000000
    12  H    0.000000   0.000000   0.000000   0.000000   0.000000   0.000000
    13  H    0.851174   0.000000   0.000000   0.000000   0.000000   0.000000
    14  H    0.000000   0.847686   0.000000   0.000000   0.000000   0.000000
    15  O    0.000000   0.000000   6.734862   0.000000   0.000000   0.000000
    16  S    0.000000   0.000000   0.000000   4.794415   0.000000   0.000000
    17  O    0.000000   0.000000   0.000000   0.000000   6.734859   0.000000
    18  H    0.000000   0.000000   0.000000   0.000000   0.000000   0.847686
    19  H    0.000000   0.000000   0.000000   0.000000   0.000000   0.000000
              19
     1  C    0.000000
     2  C    0.000000
     3  C    0.000000
     4  C    0.000000
     5  C    0.000000
     6  C    0.000000
     7  H    0.000000
     8  H    0.000000
     9  H    0.000000
    10  C    0.000000
    11  C    0.000000
    12  H    0.000000
    13  H    0.000000
    14  H    0.000000
    15  O    0.000000
    16  S    0.000000
    17  O    0.000000
    18  H    0.000000
    19  H    0.808863
 Mulliken charges:
               1
     1  C   -0.117986
     2  C   -0.213160
     3  C    0.127053
     4  C   -0.073326
     5  C   -0.150283
     6  C   -0.156829
     7  H    0.191138
     8  H    0.144632
     9  H    0.151775
    10  C   -0.599075
    11  C    0.167703
    12  H    0.147905
    13  H    0.148826
    14  H    0.152314
    15  O   -0.734862
    16  S    1.205585
    17  O   -0.734859
    18  H    0.152314
    19  H    0.191137
 Sum of Mulliken charges =   0.00000
 Mulliken charges with hydrogens summed into heavy atoms:
               1
     1  C    0.026646
     2  C   -0.061385
     3  C    0.127053
     4  C   -0.073326
     5  C   -0.002378
     6  C   -0.008003
    10  C   -0.216800
    11  C    0.472330
    15  O   -0.734862
    16  S    1.205585
    17  O   -0.734859
 APT charges:
               1
     1  C   -0.117986
     2  C   -0.213160
     3  C    0.127053
     4  C   -0.073326
     5  C   -0.150283
     6  C   -0.156829
     7  H    0.191138
     8  H    0.144632
     9  H    0.151775
    10  C   -0.599075
    11  C    0.167703
    12  H    0.147905
    13  H    0.148826
    14  H    0.152314
    15  O   -0.734862
    16  S    1.205585
    17  O   -0.734859
    18  H    0.152314
    19  H    0.191137
 Sum of APT charges =   0.00000
 APT charges with hydrogens summed into heavy atoms:
               1
     1  C    0.026646
     2  C   -0.061385
     3  C    0.127053
     4  C   -0.073326
     5  C   -0.002378
     6  C   -0.008003
    10  C   -0.216800
    11  C    0.472330
    15  O   -0.734862
    16  S    1.205585
    17  O   -0.734859
 Charge=              0.0000 electrons
 Dipole moment (field-independent basis, Debye):
    X=              0.4657    Y=             -2.9657    Z=             -0.4635  Tot=              3.0376
 N-N= 3.479201753803D+02 E-N=-5.491623326726D+02  KE=-1.098644873112D+02
  Exact polarizability:       0.000       0.000       0.000       0.000       0.000       0.000
 Approx polarizability:      94.403      -4.869      98.638      -7.821       9.055      46.578
 Calling FoFJK, ICntrl=    100127 FMM=F ISym2X=0 I1Cent= 0 IOpClX= 0 NMat=1 NMatS=1 NMatT=0.
 -------------------------------------------------------------------
 Center     Atomic                   Forces (Hartrees/Bohr)
 Number     Number              X              Y              Z
 -------------------------------------------------------------------
      1        6           0.000000128    0.000000009   -0.000000006
      2        6          -0.000000089    0.000000022    0.000000022
      3        6           0.000000209    0.000000212   -0.000000105
      4        6          -0.000000244    0.000000291   -0.000000265
      5        6          -0.000000077   -0.000000216    0.000000072
      6        6           0.000000064    0.000000103    0.000000013
      7        1           0.000000047   -0.000000031    0.000000161
      8        1           0.000000028    0.000000040    0.000000001
      9        1          -0.000000018    0.000000044    0.000000018
     10        6           0.000000124    0.000000433   -0.000000225
     11        6          -0.000000150   -0.000000375    0.000000770
     12        1           0.000000020   -0.000000043   -0.000000015
     13        1           0.000000054   -0.000000007   -0.000000017
     14        1          -0.000000111    0.000000015    0.000000055
     15        8           0.000000476   -0.000000409   -0.000000225
     16       16          -0.000000511   -0.000000396   -0.000000438
     17        8           0.000000018    0.000000501    0.000000267
     18        1           0.000000105   -0.000000147   -0.000000090
     19        1          -0.000000073   -0.000000047    0.000000007
 -------------------------------------------------------------------
 Cartesian Forces:  Max     0.000000770 RMS     0.000000226
 IRC-IRC-IRC-IRC-IRC-IRC-IRC-IRC-IRC-IRC-IRC-IRC-IRC-IRC-IRC-IRC-IRC-IRC
          ******** Start new reaction path calculation ********
 Supplied step size of   0.1000 bohr.
    Integration on MW PES will use step size of   0.2229 sqrt(amu)*bohr.
 Point Number:   0          Path Number:   1
 Calculating another point on the path.
 IRC-IRC-IRC-IRC-IRC-IRC-IRC-IRC-IRC-IRC-IRC-IRC-IRC-IRC-IRC-IRC-IRC-IRC
                          Input orientation:                          
 ---------------------------------------------------------------------
 Center     Atomic      Atomic             Coordinates (Angstroms)
 Number     Number       Type             X           Y           Z
 ---------------------------------------------------------------------
      1          6           0       -2.442172   -1.933595    0.008939
      2          6           0       -1.067549   -2.027696   -0.198113
      3          6           0       -0.240523   -0.889909   -0.118686
      4          6           0       -0.825636    0.359594    0.174632
      5          6           0       -2.215587    0.441248    0.383585
      6          6           0       -3.020213   -0.693252    0.301697
      7          1           0        1.388965   -1.530638   -1.363743
      8          1           0       -3.065752   -2.823561   -0.056859
      9          1           0       -0.625936   -2.996790   -0.425161
     10          6           0        1.223353   -1.098565   -0.358166
     11          6           0       -0.079579    1.645201    0.272088
     12          1           0       -2.670475    1.405113    0.611602
     13          1           0       -4.093315   -0.614716    0.464399
     14          1           0       -0.019703    2.111438    1.274774
     15          8           0        1.189404    1.417564   -1.033975
     16         16           0        2.148111    0.466099   -0.215767
     17          8           0        1.509828    1.042502    1.090766
     18          1           0       -0.320687    2.420365   -0.478908
     19          1           0        1.629109   -1.828039    0.369248
 ---------------------------------------------------------------------
                    Distance matrix (angstroms):
                    1          2          3          4          5
     1  C    0.000000
     2  C    1.393309   0.000000
     3  C    2.439841   1.408844   0.000000
     4  C    2.810579   2.428295   1.410549   0.000000
     5  C    2.414867   2.784250   2.434159   1.407939   0.000000
     6  C    1.399389   2.417322   2.818168   2.437376   1.393277
     7  H    4.089528   2.764096   2.148472   3.293028   4.464783
     8  H    1.088679   2.155497   3.424143   3.899255   3.402316
     9  H    2.148846   1.088906   2.163659   3.415398   3.873134
    10  C    3.777315   2.477324   1.497939   2.570692   3.840251
    11  C    4.296379   3.832408   2.570095   1.489592   2.454479
    12  H    3.400337   3.874169   3.421273   2.165060   1.089931
    13  H    2.161749   3.404510   3.906369   3.422129   2.155795
    14  H    4.881904   4.516615   3.316410   2.220090   2.899251
    15  O    5.050373   4.202656   2.864764   2.576900   3.815315
    16  S    5.184565   4.069373   2.748409   3.001153   4.404735
    17  O    5.064168   4.210724   2.874145   2.600010   3.839313
    18  H    4.867818   4.519059   3.330780   2.220104   2.872532
    19  H    4.088556   2.762920   2.147951   3.293841   4.464478
                    6          7          8          9         10
     6  C    0.000000
     7  H    4.787041   0.000000
     8  H    2.160753   4.819139   0.000000
     9  H    3.401054   2.662774   2.473531   0.000000
    10  C    4.313647   1.106932   4.632798   2.650965   0.000000
    11  C    3.757203   3.862450   5.384726   4.725753   3.102113
    12  H    2.149766   5.385135   4.299392   4.963040   4.729773
    13  H    1.088204   5.851189   2.491303   4.299803   5.401637
    14  H    4.220927   4.712838   5.950284   5.417683   3.809961
    15  O    4.894940   2.973292   6.086727   4.811718   2.605528
    16  S    5.321976   2.425100   6.166967   4.441934   1.823082
    17  O    4.914951   3.558127   6.099133   4.814084   2.601085
    18  H    4.194210   4.395028   5.933993   5.426014   3.844673
    19  H    4.786283   1.774648   4.818128   2.661258   1.107204
                   11         12         13         14         15
    11  C    0.000000
    12  H    2.624053   0.000000
    13  H    4.610237   2.475046   0.000000
    14  H    1.107403   2.822283   4.968192   0.000000
    15  O    1.835193   4.196038   5.855117   2.696984   0.000000
    16  S    2.567271   4.978459   6.370728   3.102945   1.579198
    17  O    1.886715   4.223270   5.876556   1.875086   2.181253
    18  H    1.105896   2.782346   4.932977   1.805942   1.895807
    19  H    3.872009   5.385019   5.850414   4.365552   3.563189
                   16         17         18         19
    16  S    0.000000
    17  O    1.564184   0.000000
    18  H    3.159646   2.777259   0.000000
    19  H    2.423773   2.962233   4.750791   0.000000
 Symmetry turned off by external request.
 Stoichiometry    C8H8O2S
 Framework group  C1[X(C8H8O2S)]
 Deg. of freedom    51
 Full point group                 C1      NOp   1
 Rotational constants (GHZ):           2.2771954           0.7821974           0.6433998
 Standard basis: VSTO-6G (5D, 7F)
    57 basis functions,   348 primitive gaussians,    58 cartesian basis functions
    29 alpha electrons       29 beta electrons
       nuclear repulsion energy       347.9187819260 Hartrees.
 Integral buffers will be    131072 words long.
 Regular integral format.
 Two-electron integral symmetry is turned off.
 Do NDO integrals.
 One-electron integrals computed using PRISM.
 NBasis=    57 RedAO= F EigKep=  0.00D+00  NBF=    57
 NBsUse=    57 1.00D-04 EigRej=  0.00D+00 NBFU=    57
 Initial guess from the checkpoint file:  "C:\Users\al6323\OneDrive - Imperial College London\Desktop\TSR20251115\Exercise 3\DA reaction\TS_endo_Berny_IRC.chk"
 B after Tr=     5.997102   -0.604486    0.211823
         Rot=    1.000000    0.000064   -0.000020   -0.000012 Ang=   0.01 deg.
 Keep J ints in memory in canonical form, NReq=1859402.
 Overlap will be assumed to be unity.
 Requested convergence on RMS density matrix=1.00D-08 within 128 cycles.
 Requested convergence on MAX density matrix=1.00D-06.
 Requested convergence on             energy=1.00D-06.
 No special actions if energy rises.
 SCF Done:  E(RPM6) =  0.120274081051E-01 A.U. after   15 cycles
            NFock= 14  Conv=0.83D-08     -V/T= 1.0001
 Range of M.O.s used for correlation:     1    57
 NBasis=    57 NAE=    29 NBE=    29 NFC=     0 NFV=     0
 NROrb=     57 NOA=    29 NOB=    29 NVA=    28 NVB=    28
 Symmetrizing basis deriv contribution to polar:
 IMax=3 JMax=2 DiffMx= 0.00D+00
 G2DrvN: will do    20 centers at a time, making    1 passes.
 Calling FoFCou, ICntrl=  3107 FMM=F I1Cent=   0 AccDes= 0.00D+00.
 End of G2Drv F.D. properties file   721 does not exist.
 End of G2Drv F.D. properties file   722 does not exist.
 End of G2Drv F.D. properties file   788 does not exist.
          IDoAtm=1111111111111111111
          Differentiating once with respect to nuclear coordinates.
          Electric field/nuclear overlap derivatives assumed to be zero.
 Keep J ints in memory in canonical form, NReq=1861376.
          There are    60 degrees of freedom in the 1st order CPHF.  IDoFFX=5 NUNeed=    60.
 LinEq1:  Iter=  0 NonCon=    57 RMS=1.23D-02 Max=1.12D-01 NDo=    57
 AX will form    60 AO Fock derivatives at one time.
 LinEq1:  Iter=  1 NonCon=    57 RMS=3.86D-03 Max=4.33D-02 NDo=    60
 LinEq1:  Iter=  2 NonCon=    57 RMS=9.57D-04 Max=8.25D-03 NDo=    60
 LinEq1:  Iter=  3 NonCon=    57 RMS=1.95D-04 Max=1.95D-03 NDo=    60
 LinEq1:  Iter=  4 NonCon=    57 RMS=6.47D-05 Max=4.75D-04 NDo=    60
 LinEq1:  Iter=  5 NonCon=    57 RMS=1.37D-05 Max=1.58D-04 NDo=    60
 LinEq1:  Iter=  6 NonCon=    57 RMS=4.17D-06 Max=6.59D-05 NDo=    60
 LinEq1:  Iter=  7 NonCon=    57 RMS=1.15D-06 Max=1.14D-05 NDo=    60
 LinEq1:  Iter=  8 NonCon=    56 RMS=2.45D-07 Max=2.43D-06 NDo=    60
 LinEq1:  Iter=  9 NonCon=    32 RMS=6.24D-08 Max=5.95D-07 NDo=    60
 LinEq1:  Iter= 10 NonCon=     2 RMS=1.28D-08 Max=8.41D-08 NDo=    32
 LinEq1:  Iter= 11 NonCon=     0 RMS=2.88D-09 Max=2.21D-08 NDo=     2
 Linear equations converged to 1.000D-08 1.000D-07 after    11 iterations.
 End of Minotr F.D. properties file   721 does not exist.
 End of Minotr F.D. properties file   722 does not exist.
 End of Minotr F.D. properties file   788 does not exist.
 Calling FoFJK, ICntrl=    100127 FMM=F ISym2X=0 I1Cent= 0 IOpClX= 0 NMat=1 NMatS=1 NMatT=0.
 -------------------------------------------------------------------
 Center     Atomic                   Forces (Hartrees/Bohr)
 Number     Number              X              Y              Z
 -------------------------------------------------------------------
      1        6          -0.000002315   -0.000002485    0.000013612
      2        6           0.000021830   -0.000018796    0.000112562
      3        6          -0.000002907    0.000005720    0.000034758
      4        6          -0.000154770    0.000211429   -0.000901865
      5        6           0.000009812   -0.000015454    0.000032574
      6        6           0.000019792   -0.000031445    0.000164627
      7        1           0.000017998    0.000024970   -0.000007062
      8        1          -0.000000766    0.000003789   -0.000013538
      9        1           0.000001002   -0.000001242    0.000013358
     10        6           0.000000970    0.000009959   -0.000103209
     11        6          -0.001183087    0.001894574   -0.011159141
     12        1           0.000002532   -0.000001286   -0.000000619
     13        1           0.000003181   -0.000003768    0.000016167
     14        1           0.001212330   -0.000135504   -0.001071370
     15        8          -0.008843870    0.003518620    0.005917374
     16       16           0.000487892   -0.000751991    0.004675397
     17        8           0.009827260   -0.004825322    0.002466394
     18        1          -0.001393794    0.000141314   -0.000177680
     19        1          -0.000023091   -0.000023084   -0.000012339
 -------------------------------------------------------------------
 Cartesian Forces:  Max     0.011159141 RMS     0.002679686
 IRC-IRC-IRC-IRC-IRC-IRC-IRC-IRC-IRC-IRC-IRC-IRC-IRC-IRC-IRC-IRC-IRC-IRC
 Pt  1 Step number   1 out of a maximum of  20
 Modified Bulirsch-Stoer Extrapolation Cycles:
    EPS =    0.000010000000000
      PEZero:  N= 2 I= 1 D=  5.80D-04 Err=  9.99D-04
      PEZero:  N= 3 I= 2 D=  5.80D-04 Err=  6.66D-04
      PEZero:  N= 3 I= 1 D=  1.16D-03 Err=  4.19D-08
 Maximum DWI energy   std dev =  0.000000836 at pt     1
 Maximum DWI gradient std dev =  0.014458692 at pt    21
 CORRECTOR INTEGRATION CONVERGENCE:
   Recorrection delta-x convergence threshold:    0.010000
   Delta-x Convergence Met
 Point Number:   1          Path Number:   1
   CHANGE IN THE REACTION COORDINATE =    0.22288
   NET REACTION COORDINATE UP TO THIS POINT =    0.22288
  # OF POINTS ALONG THE PATH =   1
  # OF STEPS =   1

 Calculating another point on the path.
 IRC-IRC-IRC-IRC-IRC-IRC-IRC-IRC-IRC-IRC-IRC-IRC-IRC-IRC-IRC-IRC-IRC-IRC
                          Input orientation:                          
 ---------------------------------------------------------------------
 Center     Atomic      Atomic             Coordinates (Angstroms)
 Number     Number       Type             X           Y           Z
 ---------------------------------------------------------------------
      1          6           0       -2.442175   -1.933597    0.008963
      2          6           0       -1.067509   -2.027724   -0.197915
      3          6           0       -0.240541   -0.889909   -0.118627
      4          6           0       -0.825873    0.359907    0.173041
      5          6           0       -2.215557    0.441239    0.383643
      6          6           0       -3.020173   -0.693311    0.301984
      7          1           0        1.389355   -1.530109   -1.363915
      8          1           0       -3.065782   -2.823510   -0.057143
      9          1           0       -0.625903   -2.996831   -0.424886
     10          6           0        1.223344   -1.098528   -0.358343
     11          6           0       -0.081459    1.648145    0.252558
     12          1           0       -2.670434    1.405115    0.611598
     13          1           0       -4.093262   -0.614781    0.464742
     14          1           0        0.005890    2.109946    1.255984
     15          8           0        1.177821    1.422160   -1.026269
     16         16           0        2.148373    0.465637   -0.212698
     17          8           0        1.522657    1.036189    1.094029
     18          1           0       -0.350186    2.425720   -0.485324
     19          1           0        1.628656   -1.828516    0.369008
 ---------------------------------------------------------------------
                    Distance matrix (angstroms):
                    1          2          3          4          5
     1  C    0.000000
     2  C    1.393329   0.000000
     3  C    2.439826   1.408824   0.000000
     4  C    2.810607   2.428329   1.410576   0.000000
     5  C    2.414868   2.784242   2.434115   1.407902   0.000000
     6  C    1.399375   2.417324   2.818140   2.437385   1.393298
     7  H    4.090014   2.764662   2.148758   3.292664   4.464926
     8  H    1.088669   2.155501   3.424116   3.899272   3.402317
     9  H    2.148845   1.088899   2.163658   3.415435   3.873119
    10  C    3.777338   2.477327   1.497981   2.570738   3.840243
    11  C    4.296649   3.832393   2.569982   1.489977   2.455235
    12  H    3.400333   3.874154   3.421220   2.164994   1.089924
    13  H    2.161734   3.404512   3.906337   3.422124   2.155814
    14  H    4.888590   4.515121   3.308990   2.219736   2.912110
    15  O    5.043528   4.198735   2.860285   2.565447   3.803297
    16  S    5.184456   4.069271   2.748321   3.001019   4.404555
    17  O    5.071182   4.214931   2.879107   2.611737   3.851345
    18  H    4.860491   4.519991   3.337647   2.219753   2.858824
    19  H    4.088072   2.762316   2.147712   3.294285   4.464300
                    6          7          8          9         10
     6  C    0.000000
     7  H    4.787420   0.000000
     8  H    2.160740   4.819625   0.000000
     9  H    3.401040   2.663515   2.473517   0.000000
    10  C    4.313661   1.106796   4.632805   2.650981   0.000000
    11  C    3.757779   3.857147   5.384960   4.725586   3.101601
    12  H    2.149784   5.385173   4.299393   4.963017   4.729749
    13  H    1.088199   5.851572   2.491297   4.299788   5.401646
    14  H    4.233842   4.693384   5.958058   5.413285   3.792434
    15  O    4.884939   2.979034   6.080549   4.810672   2.608077
    16  S    5.321835   2.425781   6.166855   4.441882   1.823048
    17  O    4.925019   3.556001   6.105427   4.815461   2.599229
    18  H    4.180555   4.409819   5.925556   5.429892   3.861663
    19  H    4.785895   1.774637   4.817609   2.660500   1.107339
                   11         12         13         14         15
    11  C    0.000000
    12  H    2.625027   0.000000
    13  H    4.610902   2.475073   0.000000
    14  H    1.108040   2.841607   4.985303   0.000000
    15  O    1.808938   4.182341   5.844361   2.656154   0.000000
    16  S    2.566504   4.978252   6.370576   3.074250   1.587075
    17  O    1.912002   4.236846   5.887295   1.865413   2.182556
    18  H    1.105127   2.761961   4.915067   1.805175   1.906452
    19  H    3.876239   5.384923   5.850013   4.351043   3.566083
                   16         17         18         19
    16  S    0.000000
    17  O    1.557108   0.000000
    18  H    3.187326   2.816503   0.000000
    19  H    2.423144   2.956928   4.769090   0.000000
 Symmetry turned off by external request.
 Stoichiometry    C8H8O2S
 Framework group  C1[X(C8H8O2S)]
 Deg. of freedom    51
 Full point group                 C1      NOp   1
 Rotational constants (GHZ):           2.2769553           0.7821744           0.6434065
 Standard basis: VSTO-6G (5D, 7F)
    57 basis functions,   348 primitive gaussians,    58 cartesian basis functions
    29 alpha electrons       29 beta electrons
       nuclear repulsion energy       347.9199373513 Hartrees.
 Integral buffers will be    131072 words long.
 Regular integral format.
 Two-electron integral symmetry is turned off.
 Do NDO integrals.
 One-electron integrals computed using PRISM.
 NBasis=    57 RedAO= F EigKep=  0.00D+00  NBF=    57
 NBsUse=    57 1.00D-04 EigRej=  0.00D+00 NBFU=    57
 Initial guess from the checkpoint file:  "C:\Users\al6323\OneDrive - Imperial College London\Desktop\TSR20251115\Exercise 3\DA reaction\TS_endo_Berny_IRC.chk"
 B after Tr=    -0.000042    0.000042   -0.000276
         Rot=    1.000000    0.000064   -0.000020   -0.000013 Ang=   0.01 deg.
 Keep J ints in memory in canonical form, NReq=1859402.
 Overlap will be assumed to be unity.
 Requested convergence on RMS density matrix=1.00D-08 within 128 cycles.
 Requested convergence on MAX density matrix=1.00D-06.
 Requested convergence on             energy=1.00D-06.
 No special actions if energy rises.
 SCF Done:  E(RPM6) =  0.101671197024E-01 A.U. after   15 cycles
            NFock= 14  Conv=0.61D-08     -V/T= 1.0001
 Range of M.O.s used for correlation:     1    57
 NBasis=    57 NAE=    29 NBE=    29 NFC=     0 NFV=     0
 NROrb=     57 NOA=    29 NOB=    29 NVA=    28 NVB=    28
 Symmetrizing basis deriv contribution to polar:
 IMax=3 JMax=2 DiffMx= 0.00D+00
 G2DrvN: will do    20 centers at a time, making    1 passes.
 Calling FoFCou, ICntrl=  3107 FMM=F I1Cent=   0 AccDes= 0.00D+00.
 End of G2Drv F.D. properties file   721 does not exist.
 End of G2Drv F.D. properties file   722 does not exist.
 End of G2Drv F.D. properties file   788 does not exist.
          IDoAtm=1111111111111111111
          Differentiating once with respect to nuclear coordinates.
          Electric field/nuclear overlap derivatives assumed to be zero.
 Keep J ints in memory in canonical form, NReq=1861376.
          There are    60 degrees of freedom in the 1st order CPHF.  IDoFFX=5 NUNeed=    60.
 LinEq1:  Iter=  0 NonCon=    57 RMS=1.23D-02 Max=1.05D-01 NDo=    57
 AX will form    60 AO Fock derivatives at one time.
 LinEq1:  Iter=  1 NonCon=    57 RMS=3.85D-03 Max=4.59D-02 NDo=    60
 LinEq1:  Iter=  2 NonCon=    57 RMS=9.72D-04 Max=8.13D-03 NDo=    60
 LinEq1:  Iter=  3 NonCon=    57 RMS=2.02D-04 Max=2.13D-03 NDo=    60
 LinEq1:  Iter=  4 NonCon=    57 RMS=6.88D-05 Max=5.09D-04 NDo=    60
 LinEq1:  Iter=  5 NonCon=    57 RMS=1.39D-05 Max=1.65D-04 NDo=    60
 LinEq1:  Iter=  6 NonCon=    57 RMS=4.27D-06 Max=6.51D-05 NDo=    60
 LinEq1:  Iter=  7 NonCon=    57 RMS=1.18D-06 Max=1.29D-05 NDo=    60
 LinEq1:  Iter=  8 NonCon=    56 RMS=2.53D-07 Max=2.37D-06 NDo=    60
 LinEq1:  Iter=  9 NonCon=    31 RMS=6.47D-08 Max=6.73D-07 NDo=    60
 LinEq1:  Iter= 10 NonCon=     2 RMS=1.31D-08 Max=8.63D-08 NDo=    31
 LinEq1:  Iter= 11 NonCon=     0 RMS=2.94D-09 Max=2.23D-08 NDo=     2
 Linear equations converged to 1.000D-08 1.000D-07 after    11 iterations.
 End of Minotr F.D. properties file   721 does not exist.
 End of Minotr F.D. properties file   722 does not exist.
 End of Minotr F.D. properties file   788 does not exist.
 Calling FoFJK, ICntrl=    100127 FMM=F ISym2X=0 I1Cent= 0 IOpClX= 0 NMat=1 NMatS=1 NMatT=0.
 -------------------------------------------------------------------
 Center     Atomic                   Forces (Hartrees/Bohr)
 Number     Number              X              Y              Z
 -------------------------------------------------------------------
      1        6          -0.000006491   -0.000002683    0.000028237
      2        6           0.000049179   -0.000034638    0.000225499
      3        6          -0.000026174    0.000002450    0.000062912
      4        6          -0.000280912    0.000394569   -0.001800156
      5        6           0.000041647   -0.000015002    0.000064274
      6        6           0.000045963   -0.000066184    0.000325773
      7        1           0.000036063    0.000050777   -0.000016238
      8        1          -0.000001998    0.000006170   -0.000027103
      9        1           0.000002455   -0.000003346    0.000026405
     10        6          -0.000000512    0.000040200   -0.000199817
     11        6          -0.001873776    0.003329375   -0.021851537
     12        1           0.000006250   -0.000000545   -0.000000960
     13        1           0.000005997   -0.000006638    0.000032480
     14        1           0.002350179   -0.000187171   -0.001946079
     15        8          -0.017341566    0.006889251    0.011348539
     16       16           0.000658985   -0.001333784    0.009103101
     17        8           0.019090165   -0.009383481    0.005085026
     18        1          -0.002711715    0.000366083   -0.000435677
     19        1          -0.000043739   -0.000045403   -0.000024681
 -------------------------------------------------------------------
 Cartesian Forces:  Max     0.021851537 RMS     0.005220098
 IRC-IRC-IRC-IRC-IRC-IRC-IRC-IRC-IRC-IRC-IRC-IRC-IRC-IRC-IRC-IRC-IRC-IRC
 Pt  2 Step number   1 out of a maximum of  20
 Modified Bulirsch-Stoer Extrapolation Cycles:
    EPS =    0.000010000000000
      PEZero:  N= 2 I= 1 D=  1.16D-03 Err=  2.05D-05
      PEZero:  N= 3 I= 2 D=  1.16D-03 Err=  1.37D-05
      PEZero:  N= 3 I= 1 D=  2.32D-03 Err=  2.85D-08
 Maximum DWI energy   std dev =  0.000002709 at pt    27
 Maximum DWI gradient std dev =  0.007982851 at pt    23
 CORRECTOR INTEGRATION CONVERGENCE:
   Recorrection delta-x convergence threshold:    0.010000
   Delta-x Convergence Met
 Point Number:   2          Path Number:   1
   CHANGE IN THE REACTION COORDINATE =    0.22280
   NET REACTION COORDINATE UP TO THIS POINT =    0.44568
  # OF POINTS ALONG THE PATH =   2
  # OF STEPS =   1

 Calculating another point on the path.
 IRC-IRC-IRC-IRC-IRC-IRC-IRC-IRC-IRC-IRC-IRC-IRC-IRC-IRC-IRC-IRC-IRC-IRC
                          Input orientation:                          
 ---------------------------------------------------------------------
 Center     Atomic      Atomic             Coordinates (Angstroms)
 Number     Number       Type             X           Y           Z
 ---------------------------------------------------------------------
      1          6           0       -2.442182   -1.933597    0.008990
      2          6           0       -1.067461   -2.027753   -0.197710
      3          6           0       -0.240575   -0.889907   -0.118574
      4          6           0       -0.826121    0.360249    0.171409
      5          6           0       -2.215511    0.441232    0.383700
      6          6           0       -3.020129   -0.693374    0.302278
      7          1           0        1.389743   -1.529561   -1.364101
      8          1           0       -3.065808   -2.823454   -0.057436
      9          1           0       -0.625872   -2.996874   -0.424600
     10          6           0        1.223344   -1.098483   -0.358523
     11          6           0       -0.082918    1.650904    0.232949
     12          1           0       -2.670366    1.405121    0.611592
     13          1           0       -4.093201   -0.614849    0.465096
     14          1           0        0.030956    2.108518    1.236319
     15          8           0        1.166136    1.426801   -1.018722
     16         16           0        2.148544    0.465210   -0.209639
     17          8           0        1.535463    1.029893    1.097552
     18          1           0       -0.379342    2.430637   -0.490834
     19          1           0        1.628198   -1.829008    0.368744
 ---------------------------------------------------------------------
                    Distance matrix (angstroms):
                    1          2          3          4          5
     1  C    0.000000
     2  C    1.393359   0.000000
     3  C    2.439802   1.408792   0.000000
     4  C    2.810652   2.428384   1.410619   0.000000
     5  C    2.414871   2.784231   2.434046   1.407846   0.000000
     6  C    1.399355   2.417327   2.818095   2.437401   1.393331
     7  H    4.090510   2.765233   2.149054   3.292298   4.465052
     8  H    1.088654   2.155507   3.424074   3.899299   3.402320
     9  H    2.148845   1.088887   2.163658   3.415494   3.873096
    10  C    3.777374   2.477335   1.498045   2.570804   3.840226
    11  C    4.297084   3.832402   2.569853   1.490613   2.456417
    12  H    3.400329   3.874132   3.421137   2.164892   1.089913
    13  H    2.161711   3.404514   3.906284   3.422117   2.155842
    14  H    4.895042   4.513501   3.301517   2.219246   2.924622
    15  O    5.036708   4.194873   2.855913   2.554023   3.791262
    16  S    5.184288   4.069114   2.748186   3.000807   4.404270
    17  O    5.078277   4.219255   2.884251   2.623593   3.863407
    18  H    4.853007   4.520694   3.344226   2.219163   2.845006
    19  H    4.087585   2.761692   2.147487   3.294764   4.464113
                    6          7          8          9         10
     6  C    0.000000
     7  H    4.787797   0.000000
     8  H    2.160722   4.820111   0.000000
     9  H    3.401018   2.664277   2.473494   0.000000
    10  C    4.313680   1.106663   4.632818   2.651010   0.000000
    11  C    3.758678   3.851578   5.385335   4.725358   3.100853
    12  H    2.149812   5.385184   4.299397   4.962983   4.729707
    13  H    1.088191   5.851951   2.491287   4.299764   5.401657
    14  H    4.246428   4.673767   5.965575   5.408798   3.774939
    15  O    4.874936   2.984855   6.074380   4.809696   2.610785
    16  S    5.321612   2.426453   6.166680   4.441804   1.822992
    17  O    4.935132   3.554121   6.111790   4.816967   2.597606
    18  H    4.166801   4.424413   5.916959   5.433511   3.878247
    19  H    4.785501   1.774622   4.817078   2.659725   1.107470
                   11         12         13         14         15
    11  C    0.000000
    12  H    2.626532   0.000000
    13  H    4.611930   2.475116   0.000000
    14  H    1.108661   2.860453   5.002018   0.000000
    15  O    1.782425   4.168590   5.833582   2.615069   0.000000
    16  S    2.565380   4.977926   6.370336   3.045560   1.595117
    17  O    1.937098   4.250406   5.898054   1.856402   2.184618
    18  H    1.104406   2.741499   4.897095   1.804207   1.916992
    19  H    3.880225   5.384813   5.849604   4.336816   3.569154
                   16         17         18         19
    16  S    0.000000
    17  O    1.550318   0.000000
    18  H    3.214371   2.855089   0.000000
    19  H    2.422545   2.951792   4.786823   0.000000
 Symmetry turned off by external request.
 Stoichiometry    C8H8O2S
 Framework group  C1[X(C8H8O2S)]
 Deg. of freedom    51
 Full point group                 C1      NOp   1
 Rotational constants (GHZ):           2.2765539           0.7821374           0.6434136
 Standard basis: VSTO-6G (5D, 7F)
    57 basis functions,   348 primitive gaussians,    58 cartesian basis functions
    29 alpha electrons       29 beta electrons
       nuclear repulsion energy       347.9217002577 Hartrees.
 Integral buffers will be    131072 words long.
 Regular integral format.
 Two-electron integral symmetry is turned off.
 Do NDO integrals.
 One-electron integrals computed using PRISM.
 NBasis=    57 RedAO= F EigKep=  0.00D+00  NBF=    57
 NBsUse=    57 1.00D-04 EigRej=  0.00D+00 NBFU=    57
 Initial guess from the checkpoint file:  "C:\Users\al6323\OneDrive - Imperial College London\Desktop\TSR20251115\Exercise 3\DA reaction\TS_endo_Berny_IRC.chk"
 B after Tr=    -0.000044    0.000039   -0.000276
         Rot=    1.000000    0.000064   -0.000019   -0.000013 Ang=   0.01 deg.
 Keep J ints in memory in canonical form, NReq=1859402.
 Overlap will be assumed to be unity.
 Requested convergence on RMS density matrix=1.00D-08 within 128 cycles.
 Requested convergence on MAX density matrix=1.00D-06.
 Requested convergence on             energy=1.00D-06.
 No special actions if energy rises.
 SCF Done:  E(RPM6) =  0.717579127013E-02 A.U. after   15 cycles
            NFock= 14  Conv=0.34D-08     -V/T= 1.0001
 Range of M.O.s used for correlation:     1    57
 NBasis=    57 NAE=    29 NBE=    29 NFC=     0 NFV=     0
 NROrb=     57 NOA=    29 NOB=    29 NVA=    28 NVB=    28
 Symmetrizing basis deriv contribution to polar:
 IMax=3 JMax=2 DiffMx= 0.00D+00
 G2DrvN: will do    20 centers at a time, making    1 passes.
 Calling FoFCou, ICntrl=  3107 FMM=F I1Cent=   0 AccDes= 0.00D+00.
 End of G2Drv F.D. properties file   721 does not exist.
 End of G2Drv F.D. properties file   722 does not exist.
 End of G2Drv F.D. properties file   788 does not exist.
          IDoAtm=1111111111111111111
          Differentiating once with respect to nuclear coordinates.
          Electric field/nuclear overlap derivatives assumed to be zero.
 Keep J ints in memory in canonical form, NReq=1861376.
          There are    60 degrees of freedom in the 1st order CPHF.  IDoFFX=5 NUNeed=    60.
 LinEq1:  Iter=  0 NonCon=    57 RMS=1.23D-02 Max=9.95D-02 NDo=    57
 AX will form    60 AO Fock derivatives at one time.
 LinEq1:  Iter=  1 NonCon=    57 RMS=3.84D-03 Max=4.91D-02 NDo=    60
 LinEq1:  Iter=  2 NonCon=    57 RMS=9.82D-04 Max=8.19D-03 NDo=    60
 LinEq1:  Iter=  3 NonCon=    57 RMS=2.16D-04 Max=2.38D-03 NDo=    60
 LinEq1:  Iter=  4 NonCon=    57 RMS=7.11D-05 Max=6.33D-04 NDo=    60
 LinEq1:  Iter=  5 NonCon=    57 RMS=1.40D-05 Max=1.72D-04 NDo=    60
 LinEq1:  Iter=  6 NonCon=    57 RMS=4.33D-06 Max=6.53D-05 NDo=    60
 LinEq1:  Iter=  7 NonCon=    57 RMS=1.19D-06 Max=1.38D-05 NDo=    60
 LinEq1:  Iter=  8 NonCon=    57 RMS=2.57D-07 Max=2.46D-06 NDo=    60
 LinEq1:  Iter=  9 NonCon=    31 RMS=6.59D-08 Max=7.11D-07 NDo=    60
 LinEq1:  Iter= 10 NonCon=     2 RMS=1.33D-08 Max=9.39D-08 NDo=    31
 LinEq1:  Iter= 11 NonCon=     0 RMS=2.99D-09 Max=2.23D-08 NDo=     2
 Linear equations converged to 1.000D-08 1.000D-07 after    11 iterations.
 End of Minotr F.D. properties file   721 does not exist.
 End of Minotr F.D. properties file   722 does not exist.
 End of Minotr F.D. properties file   788 does not exist.
 Calling FoFJK, ICntrl=    100127 FMM=F ISym2X=0 I1Cent= 0 IOpClX= 0 NMat=1 NMatS=1 NMatT=0.
 -------------------------------------------------------------------
 Center     Atomic                   Forces (Hartrees/Bohr)
 Number     Number              X              Y              Z
 -------------------------------------------------------------------
      1        6          -0.000014898   -0.000001284    0.000044611
      2        6           0.000084772   -0.000048022    0.000338724
      3        6          -0.000067899    0.000007327    0.000079983
      4        6          -0.000413224    0.000598951   -0.002669359
      5        6           0.000088717   -0.000013445    0.000092599
      6        6           0.000073401   -0.000105126    0.000482272
      7        1           0.000051884    0.000076132   -0.000026315
      8        1          -0.000002819    0.000008769   -0.000040386
      9        1           0.000003525   -0.000005300    0.000039463
     10        6           0.000011218    0.000080665   -0.000292564
     11        6          -0.001964478    0.004362294   -0.031499789
     12        1           0.000012221    0.000000371   -0.000001360
     13        1           0.000009193   -0.000009614    0.000048632
     14        1           0.003296574   -0.000221187   -0.002815651
     15        8          -0.025115658    0.009977402    0.015933943
     16       16           0.000495482   -0.001739049    0.013014969
     17        8           0.027363148   -0.013431248    0.007893188
     18        1          -0.003848195    0.000530102   -0.000584188
     19        1          -0.000062964   -0.000067739   -0.000038771
 -------------------------------------------------------------------
 Cartesian Forces:  Max     0.031499789 RMS     0.007499606
 IRC-IRC-IRC-IRC-IRC-IRC-IRC-IRC-IRC-IRC-IRC-IRC-IRC-IRC-IRC-IRC-IRC-IRC
 Pt  3 Step number   1 out of a maximum of  20
 Modified Bulirsch-Stoer Extrapolation Cycles:
    EPS =    0.000010000000000
      PEZero:  N= 2 I= 1 D=  1.16D-03 Err=  2.12D-05
      PEZero:  N= 3 I= 2 D=  1.16D-03 Err=  1.41D-05
      PEZero:  N= 3 I= 1 D=  2.32D-03 Err=  2.36D-08
 Maximum DWI energy   std dev =  0.000003771 at pt    28
 Maximum DWI gradient std dev =  0.004372774 at pt    24
 CORRECTOR INTEGRATION CONVERGENCE:
   Recorrection delta-x convergence threshold:    0.010000
   Delta-x Convergence Met
 Point Number:   3          Path Number:   1
   CHANGE IN THE REACTION COORDINATE =    0.22282
   NET REACTION COORDINATE UP TO THIS POINT =    0.66850
  # OF POINTS ALONG THE PATH =   3
  # OF STEPS =   1

 Calculating another point on the path.
 IRC-IRC-IRC-IRC-IRC-IRC-IRC-IRC-IRC-IRC-IRC-IRC-IRC-IRC-IRC-IRC-IRC-IRC
                          Input orientation:                          
 ---------------------------------------------------------------------
 Center     Atomic      Atomic             Coordinates (Angstroms)
 Number     Number       Type             X           Y           Z
 ---------------------------------------------------------------------
      1          6           0       -2.442192   -1.933597    0.009019
      2          6           0       -1.067403   -2.027782   -0.197493
      3          6           0       -0.240627   -0.889901   -0.118528
      4          6           0       -0.826381    0.360624    0.169713
      5          6           0       -2.215446    0.441227    0.383758
      6          6           0       -3.020080   -0.693443    0.302584
      7          1           0        1.390129   -1.528981   -1.364308
      8          1           0       -3.065832   -2.823393   -0.057742
      9          1           0       -0.625844   -2.996918   -0.424299
     10          6           0        1.223353   -1.098424   -0.358708
     11          6           0       -0.083923    1.653450    0.213262
     12          1           0       -2.670268    1.405131    0.611584
     13          1           0       -4.093133   -0.614920    0.465467
     14          1           0        0.055285    2.107214    1.215833
     15          8           0        1.154338    1.431484   -1.011343
     16         16           0        2.148606    0.464825   -0.206598
     17          8           0        1.548263    1.023617    1.101379
     18          1           0       -0.407984    2.435096   -0.495511
     19          1           0        1.627733   -1.829521    0.368446
 ---------------------------------------------------------------------
                    Distance matrix (angstroms):
                    1          2          3          4          5
     1  C    0.000000
     2  C    1.393400   0.000000
     3  C    2.439766   1.408746   0.000000
     4  C    2.810715   2.428460   1.410675   0.000000
     5  C    2.414877   2.784216   2.433948   1.407769   0.000000
     6  C    1.399327   2.417330   2.818030   2.437423   1.393378
     7  H    4.091018   2.765813   2.149362   3.291921   4.465157
     8  H    1.088633   2.155515   3.424014   3.899339   3.402326
     9  H    2.148846   1.088871   2.163656   3.415576   3.873065
    10  C    3.777428   2.477349   1.498134   2.570887   3.840198
    11  C    4.297681   3.832418   2.569684   1.491489   2.458037
    12  H    3.400324   3.874102   3.421021   2.164755   1.089898
    13  H    2.161679   3.404517   3.906208   3.422108   2.155883
    14  H    4.901219   4.511774   3.294052   2.218620   2.936679
    15  O    5.029904   4.191063   2.851644   2.542613   3.779201
    16  S    5.184047   4.068893   2.747995   3.000503   4.403865
    17  O    5.085479   4.223720   2.889611   2.635621   3.875522
    18  H    4.845414   4.521164   3.350482   2.218335   2.831174
    19  H    4.087091   2.761042   2.147277   3.295285   4.463917
                    6          7          8          9         10
     6  C    0.000000
     7  H    4.788173   0.000000
     8  H    2.160698   4.820602   0.000000
     9  H    3.400989   2.665070   2.473463   0.000000
    10  C    4.313704   1.106538   4.632840   2.651059   0.000000
    11  C    3.759908   3.845702   5.385848   4.725049   3.099827
    12  H    2.149852   5.385163   4.299405   4.962938   4.729644
    13  H    1.088181   5.852328   2.491275   4.299732   5.401672
    14  H    4.258589   4.654121   5.972792   5.404270   3.757615
    15  O    4.864924   2.990742   6.068210   4.808785   2.613643
    16  S    5.321294   2.427106   6.166433   4.441692   1.822903
    17  O    4.945314   3.552517   6.118245   4.818624   2.596243
    18  H    4.153043   4.438685   5.908258   5.436847   3.894321
    19  H    4.785100   1.774603   4.816531   2.658923   1.107600
                   11         12         13         14         15
    11  C    0.000000
    12  H    2.628594   0.000000
    13  H    4.613337   2.475177   0.000000
    14  H    1.109246   2.878659   5.018210   0.000000
    15  O    1.755624   4.154780   5.822773   2.573876   0.000000
    16  S    2.563844   4.977464   6.369994   3.017075   1.603314
    17  O    1.962008   4.263972   5.908852   1.848314   2.187494
    18  H    1.103787   2.721106   4.879180   1.803004   1.927218
    19  H    3.883933   5.384691   5.849186   4.323024   3.572404
                   16         17         18         19
    16  S    0.000000
    17  O    1.543847   0.000000
    18  H    3.240616   2.892963   0.000000
    19  H    2.421984   2.946846   4.803907   0.000000
 Symmetry turned off by external request.
 Stoichiometry    C8H8O2S
 Framework group  C1[X(C8H8O2S)]
 Deg. of freedom    51
 Full point group                 C1      NOp   1
 Rotational constants (GHZ):           2.2759875           0.7820852           0.6434234
 Standard basis: VSTO-6G (5D, 7F)
    57 basis functions,   348 primitive gaussians,    58 cartesian basis functions
    29 alpha electrons       29 beta electrons
       nuclear repulsion energy       347.9238522809 Hartrees.
 Integral buffers will be    131072 words long.
 Regular integral format.
 Two-electron integral symmetry is turned off.
 Do NDO integrals.
 One-electron integrals computed using PRISM.
 NBasis=    57 RedAO= F EigKep=  0.00D+00  NBF=    57
 NBsUse=    57 1.00D-04 EigRej=  0.00D+00 NBFU=    57
 Initial guess from the checkpoint file:  "C:\Users\al6323\OneDrive - Imperial College London\Desktop\TSR20251115\Exercise 3\DA reaction\TS_endo_Berny_IRC.chk"
 B after Tr=    -0.000046    0.000035   -0.000276
         Rot=    1.000000    0.000065   -0.000019   -0.000013 Ang=   0.01 deg.
 Keep J ints in memory in canonical form, NReq=1859402.
 Overlap will be assumed to be unity.
 Requested convergence on RMS density matrix=1.00D-08 within 128 cycles.
 Requested convergence on MAX density matrix=1.00D-06.
 Requested convergence on             energy=1.00D-06.
 No special actions if energy rises.
 SCF Done:  E(RPM6) =  0.320202324218E-02 A.U. after   15 cycles
            NFock= 14  Conv=0.77D-08     -V/T= 1.0000
 Range of M.O.s used for correlation:     1    57
 NBasis=    57 NAE=    29 NBE=    29 NFC=     0 NFV=     0
 NROrb=     57 NOA=    29 NOB=    29 NVA=    28 NVB=    28
 Symmetrizing basis deriv contribution to polar:
 IMax=3 JMax=2 DiffMx= 0.00D+00
 G2DrvN: will do    20 centers at a time, making    1 passes.
 Calling FoFCou, ICntrl=  3107 FMM=F I1Cent=   0 AccDes= 0.00D+00.
 End of G2Drv F.D. properties file   721 does not exist.
 End of G2Drv F.D. properties file   722 does not exist.
 End of G2Drv F.D. properties file   788 does not exist.
          IDoAtm=1111111111111111111
          Differentiating once with respect to nuclear coordinates.
          Electric field/nuclear overlap derivatives assumed to be zero.
 Keep J ints in memory in canonical form, NReq=1861376.
          There are    60 degrees of freedom in the 1st order CPHF.  IDoFFX=5 NUNeed=    60.
 LinEq1:  Iter=  0 NonCon=    57 RMS=1.23D-02 Max=1.00D-01 NDo=    57
 AX will form    60 AO Fock derivatives at one time.
 LinEq1:  Iter=  1 NonCon=    57 RMS=3.83D-03 Max=5.16D-02 NDo=    60
 LinEq1:  Iter=  2 NonCon=    57 RMS=9.88D-04 Max=7.06D-03 NDo=    60
 LinEq1:  Iter=  3 NonCon=    57 RMS=2.26D-04 Max=2.57D-03 NDo=    60
 LinEq1:  Iter=  4 NonCon=    57 RMS=7.24D-05 Max=7.39D-04 NDo=    60
 LinEq1:  Iter=  5 NonCon=    57 RMS=1.41D-05 Max=1.78D-04 NDo=    60
 LinEq1:  Iter=  6 NonCon=    57 RMS=4.36D-06 Max=6.57D-05 NDo=    60
 LinEq1:  Iter=  7 NonCon=    57 RMS=1.19D-06 Max=1.39D-05 NDo=    60
 LinEq1:  Iter=  8 NonCon=    57 RMS=2.58D-07 Max=2.47D-06 NDo=    60
 LinEq1:  Iter=  9 NonCon=    30 RMS=6.64D-08 Max=7.18D-07 NDo=    60
 LinEq1:  Iter= 10 NonCon=     2 RMS=1.34D-08 Max=1.05D-07 NDo=    30
 LinEq1:  Iter= 11 NonCon=     0 RMS=3.04D-09 Max=2.29D-08 NDo=     2
 Linear equations converged to 1.000D-08 1.000D-07 after    11 iterations.
 End of Minotr F.D. properties file   721 does not exist.
 End of Minotr F.D. properties file   722 does not exist.
 End of Minotr F.D. properties file   788 does not exist.
 Calling FoFJK, ICntrl=    100127 FMM=F ISym2X=0 I1Cent= 0 IOpClX= 0 NMat=1 NMatS=1 NMatT=0.
 -------------------------------------------------------------------
 Center     Atomic                   Forces (Hartrees/Bohr)
 Number     Number              X              Y              Z
 -------------------------------------------------------------------
      1        6          -0.000025595    0.000000853    0.000062698
      2        6           0.000125675   -0.000060610    0.000452299
      3        6          -0.000125626    0.000017419    0.000079899
      4        6          -0.000541436    0.000811970   -0.003502784
      5        6           0.000150152   -0.000007865    0.000116458
      6        6           0.000103911   -0.000144764    0.000632966
      7        1           0.000064965    0.000101689   -0.000037655
      8        1          -0.000003328    0.000011387   -0.000053197
      9        1           0.000004385   -0.000007265    0.000052554
     10        6           0.000032641    0.000138505   -0.000378267
     11        6          -0.001577845    0.005000682   -0.039685409
     12        1           0.000020101    0.000001681   -0.000001603
     13        1           0.000012804   -0.000012397    0.000064732
     14        1           0.004006991   -0.000233880   -0.003610522
     15        8          -0.031812089    0.012618368    0.019548367
     16       16           0.000023391   -0.001959785    0.016226273
     17        8           0.034361906   -0.016808698    0.010731030
     18        1          -0.004741121    0.000621717   -0.000643006
     19        1          -0.000079880   -0.000089006   -0.000054833
 -------------------------------------------------------------------
 Cartesian Forces:  Max     0.039685409 RMS     0.009429269
 IRC-IRC-IRC-IRC-IRC-IRC-IRC-IRC-IRC-IRC-IRC-IRC-IRC-IRC-IRC-IRC-IRC-IRC
 Pt  4 Step number   1 out of a maximum of  20
 Modified Bulirsch-Stoer Extrapolation Cycles:
    EPS =    0.000010000000000
      PEZero:  N= 2 I= 1 D=  1.16D-03 Err=  2.08D-05
      PEZero:  N= 3 I= 2 D=  1.16D-03 Err=  1.39D-05
      PEZero:  N= 3 I= 1 D=  2.32D-03 Err=  2.87D-08
 Maximum DWI energy   std dev =  0.000004436 at pt    19
 Maximum DWI gradient std dev =  0.002988132 at pt    24
 CORRECTOR INTEGRATION CONVERGENCE:
   Recorrection delta-x convergence threshold:    0.010000
   Delta-x Convergence Met
 Point Number:   4          Path Number:   1
   CHANGE IN THE REACTION COORDINATE =    0.22282
   NET REACTION COORDINATE UP TO THIS POINT =    0.89132
  # OF POINTS ALONG THE PATH =   4
  # OF STEPS =   1

 Calculating another point on the path.
 IRC-IRC-IRC-IRC-IRC-IRC-IRC-IRC-IRC-IRC-IRC-IRC-IRC-IRC-IRC-IRC-IRC-IRC
                          Input orientation:                          
 ---------------------------------------------------------------------
 Center     Atomic      Atomic             Coordinates (Angstroms)
 Number     Number       Type             X           Y           Z
 ---------------------------------------------------------------------
      1          6           0       -2.442206   -1.933596    0.009052
      2          6           0       -1.067336   -2.027812   -0.197261
      3          6           0       -0.240700   -0.889890   -0.118495
      4          6           0       -0.826655    0.361035    0.167929
      5          6           0       -2.215362    0.441227    0.383815
      6          6           0       -3.020025   -0.693519    0.302907
      7          1           0        1.390513   -1.528357   -1.364544
      8          1           0       -3.065853   -2.823328   -0.058064
      9          1           0       -0.625816   -2.996965   -0.423977
     10          6           0        1.223372   -1.098343   -0.358899
     11          6           0       -0.084495    1.655784    0.193509
     12          1           0       -2.670138    1.405146    0.611578
     13          1           0       -4.093054   -0.614993    0.465865
     14          1           0        0.078715    2.106071    1.194636
     15          8           0        1.142430    1.436200   -1.004134
     16         16           0        2.148553    0.464481   -0.203581
     17          8           0        1.561085    1.017358    1.105528
     18          1           0       -0.435963    2.439060   -0.499464
     19          1           0        1.627261   -1.830058    0.368103
 ---------------------------------------------------------------------
                    Distance matrix (angstroms):
                    1          2          3          4          5
     1  C    0.000000
     2  C    1.393453   0.000000
     3  C    2.439717   1.408686   0.000000
     4  C    2.810797   2.428555   1.410744   0.000000
     5  C    2.414889   2.784199   2.433820   1.407673   0.000000
     6  C    1.399291   2.417333   2.817940   2.437453   1.393441
     7  H    4.091543   2.766411   2.149682   3.291521   4.465239
     8  H    1.088606   2.155526   3.423934   3.899391   3.402339
     9  H    2.148847   1.088852   2.163654   3.415678   3.873028
    10  C    3.777499   2.477374   1.498250   2.570981   3.840155
    11  C    4.298427   3.832435   2.569475   1.492591   2.460073
    12  H    3.400322   3.874067   3.420872   2.164583   1.089880
    13  H    2.161640   3.404521   3.906107   3.422099   2.155936
    14  H    4.907093   4.509967   3.286659   2.217876   2.948207
    15  O    5.023115   4.187301   2.847473   2.531207   3.767113
    16  S    5.183730   4.068600   2.747743   3.000098   4.403332
    17  O    5.092812   4.228347   2.895213   2.647859   3.887718
    18  H    4.837740   4.521383   3.356364   2.217260   2.817407
    19  H    4.086588   2.760361   2.147084   3.295856   4.463713
                    6          7          8          9         10
     6  C    0.000000
     7  H    4.788548   0.000000
     8  H    2.160668   4.821104   0.000000
     9  H    3.400950   2.665906   2.473424   0.000000
    10  C    4.313732   1.106422   4.632875   2.651131   0.000000
    11  C    3.761453   3.839523   5.386486   4.724658   3.098530
    12  H    2.149906   5.385108   4.299419   4.962883   4.729557
    13  H    1.088169   5.852703   2.491262   4.299692   5.401689
    14  H    4.270255   4.634576   5.979678   5.399746   3.740587
    15  O    4.854904   2.996672   6.062036   4.807934   2.616637
    16  S    5.320873   2.427728   6.166109   4.441543   1.822774
    17  O    4.955590   3.551200   6.124817   4.820448   2.595148
    18  H    4.139351   4.452503   5.899482   5.439864   3.909779
    19  H    4.784688   1.774581   4.815966   2.658085   1.107730
                   11         12         13         14         15
    11  C    0.000000
    12  H    2.631188   0.000000
    13  H    4.615100   2.475255   0.000000
    14  H    1.109798   2.896109   5.033781   0.000000
    15  O    1.728558   4.140914   5.811935   2.532747   0.000000
    16  S    2.561911   4.976859   6.369543   2.988990   1.611647
    17  O    1.986781   4.277571   5.919715   1.841374   2.191204
    18  H    1.103297   2.700913   4.861422   1.801597   1.936942
    19  H    3.887375   5.384558   5.848756   4.309788   3.575827
                   16         17         18         19
    16  S    0.000000
    17  O    1.537713   0.000000
    18  H    3.265920   2.930091   0.000000
    19  H    2.421462   2.942101   4.820263   0.000000
 Symmetry turned off by external request.
 Stoichiometry    C8H8O2S
 Framework group  C1[X(C8H8O2S)]
 Deg. of freedom    51
 Full point group                 C1      NOp   1
 Rotational constants (GHZ):           2.2752477           0.7820163           0.6434365
 Standard basis: VSTO-6G (5D, 7F)
    57 basis functions,   348 primitive gaussians,    58 cartesian basis functions
    29 alpha electrons       29 beta electrons
       nuclear repulsion energy       347.9260458485 Hartrees.
 Integral buffers will be    131072 words long.
 Regular integral format.
 Two-electron integral symmetry is turned off.
 Do NDO integrals.
 One-electron integrals computed using PRISM.
 NBasis=    57 RedAO= F EigKep=  0.00D+00  NBF=    57
 NBsUse=    57 1.00D-04 EigRej=  0.00D+00 NBFU=    57
 Initial guess from the checkpoint file:  "C:\Users\al6323\OneDrive - Imperial College London\Desktop\TSR20251115\Exercise 3\DA reaction\TS_endo_Berny_IRC.chk"
 B after Tr=    -0.000048    0.000032   -0.000277
         Rot=    1.000000    0.000065   -0.000018   -0.000013 Ang=   0.01 deg.
 Keep J ints in memory in canonical form, NReq=1859402.
 Overlap will be assumed to be unity.
 Requested convergence on RMS density matrix=1.00D-08 within 128 cycles.
 Requested convergence on MAX density matrix=1.00D-06.
 Requested convergence on             energy=1.00D-06.
 No special actions if energy rises.
 SCF Done:  E(RPM6) = -0.157128773503E-02 A.U. after   15 cycles
            NFock= 14  Conv=0.80D-08     -V/T= 1.0000
 Range of M.O.s used for correlation:     1    57
 NBasis=    57 NAE=    29 NBE=    29 NFC=     0 NFV=     0
 NROrb=     57 NOA=    29 NOB=    29 NVA=    28 NVB=    28
 Symmetrizing basis deriv contribution to polar:
 IMax=3 JMax=2 DiffMx= 0.00D+00
 G2DrvN: will do    20 centers at a time, making    1 passes.
 Calling FoFCou, ICntrl=  3107 FMM=F I1Cent=   0 AccDes= 0.00D+00.
 End of G2Drv F.D. properties file   721 does not exist.
 End of G2Drv F.D. properties file   722 does not exist.
 End of G2Drv F.D. properties file   788 does not exist.
          IDoAtm=1111111111111111111
          Differentiating once with respect to nuclear coordinates.
          Electric field/nuclear overlap derivatives assumed to be zero.
 Keep J ints in memory in canonical form, NReq=1861376.
          There are    60 degrees of freedom in the 1st order CPHF.  IDoFFX=5 NUNeed=    60.
 LinEq1:  Iter=  0 NonCon=    57 RMS=1.22D-02 Max=1.00D-01 NDo=    57
 AX will form    60 AO Fock derivatives at one time.
 LinEq1:  Iter=  1 NonCon=    57 RMS=3.81D-03 Max=5.29D-02 NDo=    60
 LinEq1:  Iter=  2 NonCon=    57 RMS=9.91D-04 Max=7.41D-03 NDo=    60
 LinEq1:  Iter=  3 NonCon=    57 RMS=2.33D-04 Max=2.68D-03 NDo=    60
 LinEq1:  Iter=  4 NonCon=    57 RMS=7.34D-05 Max=8.16D-04 NDo=    60
 LinEq1:  Iter=  5 NonCon=    57 RMS=1.43D-05 Max=1.81D-04 NDo=    60
 LinEq1:  Iter=  6 NonCon=    57 RMS=4.36D-06 Max=6.54D-05 NDo=    60
 LinEq1:  Iter=  7 NonCon=    57 RMS=1.19D-06 Max=1.35D-05 NDo=    60
 LinEq1:  Iter=  8 NonCon=    57 RMS=2.57D-07 Max=2.60D-06 NDo=    60
 LinEq1:  Iter=  9 NonCon=    31 RMS=6.63D-08 Max=7.00D-07 NDo=    60
 LinEq1:  Iter= 10 NonCon=     2 RMS=1.34D-08 Max=1.07D-07 NDo=    31
 LinEq1:  Iter= 11 NonCon=     0 RMS=3.06D-09 Max=2.08D-08 NDo=     2
 Linear equations converged to 1.000D-08 1.000D-07 after    11 iterations.
 End of Minotr F.D. properties file   721 does not exist.
 End of Minotr F.D. properties file   722 does not exist.
 End of Minotr F.D. properties file   788 does not exist.
 Calling FoFJK, ICntrl=    100127 FMM=F ISym2X=0 I1Cent= 0 IOpClX= 0 NMat=1 NMatS=1 NMatT=0.
 -------------------------------------------------------------------
 Center     Atomic                   Forces (Hartrees/Bohr)
 Number     Number              X              Y              Z
 -------------------------------------------------------------------
      1        6          -0.000036998    0.000003234    0.000082549
      2        6           0.000169333   -0.000073277    0.000565813
      3        6          -0.000195899    0.000031157    0.000059080
      4        6          -0.000659569    0.001021494   -0.004293702
      5        6           0.000223340    0.000003831    0.000134250
      6        6           0.000138716   -0.000182473    0.000776987
      7        1           0.000075110    0.000127878   -0.000050261
      8        1          -0.000003655    0.000013879   -0.000065293
      9        1           0.000005233   -0.000009360    0.000065794
     10        6           0.000059719    0.000218759   -0.000454665
     11        6          -0.000872333    0.005276955   -0.046137067
     12        1           0.000029292    0.000003448   -0.000001475
     13        1           0.000016853   -0.000014743    0.000080951
     14        1           0.004457787   -0.000223970   -0.004278175
     15        8          -0.037195176    0.014711697    0.022125291
     16       16          -0.000711056   -0.002006224    0.018648429
[...]
     16       16          -0.000012614    0.000052461   -0.000005031
     17        8          -0.000043790    0.000173441   -0.000138194
     18        1          -0.000011051   -0.000008758    0.000013966
     19        1          -0.000015826    0.000023080    0.000001196
 -------------------------------------------------------------------
 Cartesian Forces:  Max     0.000248357 RMS     0.000070045
 IRC-IRC-IRC-IRC-IRC-IRC-IRC-IRC-IRC-IRC-IRC-IRC-IRC-IRC-IRC-IRC-IRC-IRC
 Pt 88 Step number   1 out of a maximum of  20
 Modified Bulirsch-Stoer Extrapolation Cycles:
    EPS =    0.000010000000000
      PEZero:  N= 2 I= 1 D=  1.16D-03 Err=  1.86D-02
      PEZero:  N= 3 I= 2 D=  1.16D-03 Err=  2.61D-02
      PEZero:  N= 3 I= 1 D=  2.32D-03 Err=  2.06D-02
      PEZero:  N= 4 I= 3 D=  5.80D-04 Err=  3.86D-02
      PEZero:  N= 4 I= 2 D=  1.74D-03 Err=  2.54D-02
      PEZero:  N= 4 I= 1 D=  2.90D-03 Err=  1.81D-02
      PEZero:  N= 5 I= 4 D=  5.80D-04 Err=  3.00D-02
      PEZero:  N= 5 I= 3 D=  1.16D-03 Err=  6.38D-03
      PEZero:  N= 5 I= 2 D=  2.32D-03 Err=  6.31D-03
      PEZero:  N= 5 I= 1 D=  3.48D-03 Err=  1.23D-02
      PEZero:  N= 6 I= 5 D=  2.90D-04 Err=  1.83D-05
      PEZero:  N= 6 I= 4 D=  8.70D-04 Err=  3.00D-02
      PEZero:  N= 7 I= 6 D=  2.90D-04 Err=  1.22D-05
      PEZero:  N= 7 I= 5 D=  5.80D-04 Err=  4.39D-09
      PEZero:  N= 7 I= 4 D=  1.16D-03 Err=  3.19D-03
 Maximum DWI energy   std dev =  0.000000020 at pt    19
 Maximum DWI gradient std dev =  0.061479432 at pt   290
 CORRECTOR INTEGRATION CONVERGENCE:
   Recorrection delta-x convergence threshold:    0.010000
   Delta-x Convergence Met
 Point Number:  44          Path Number:   2
   CHANGE IN THE REACTION COORDINATE =    0.22276
   NET REACTION COORDINATE UP TO THIS POINT =    9.80230
  # OF POINTS ALONG THE PATH =  88
  # OF STEPS =   1

 PES minimum detected on this side of the pathway.
    Magnitude of the gradient =      0.0001485
 Calculation of REVERSE path complete.
 Reaction path calculation complete.
 
 Energies reported relative to the TS energy of           0.012659
 --------------------------------------------------------------------------
    Summary of reaction path following
 --------------------------------------------------------------------------
                        Energy    RxCoord
   1                   -0.09061  -9.80230
   2                   -0.09057  -9.57955
   3                   -0.09051  -9.35672
   4                   -0.09043  -9.13389
   5                   -0.09033  -8.91107
   6                   -0.09021  -8.68826
   7                   -0.09007  -8.46547
   8                   -0.08990  -8.24269
   9                   -0.08971  -8.01993
  10                   -0.08949  -7.79717
  11                   -0.08924  -7.57442
  12                   -0.08896  -7.35167
  13                   -0.08863  -7.12891
  14                   -0.08826  -6.90614
  15                   -0.08784  -6.68336
  16                   -0.08736  -6.46057
  17                   -0.08682  -6.23779
  18                   -0.08620  -6.01500
  19                   -0.08551  -5.79223
  20                   -0.08472  -5.56946
  21                   -0.08382  -5.34671
  22                   -0.08280  -5.12395
  23                   -0.08162  -4.90120
  24                   -0.08027  -4.67844
  25                   -0.07872  -4.45568
  26                   -0.07693  -4.23291
  27                   -0.07486  -4.01016
  28                   -0.07248  -3.78744
  29                   -0.06973  -3.56476
  30                   -0.06655  -3.34209
  31                   -0.06288  -3.11941
  32                   -0.05869  -2.89668
  33                   -0.05398  -2.67392
  34                   -0.04879  -2.45112
  35                   -0.04321  -2.22830
  36                   -0.03735  -2.00547
  37                   -0.03135  -1.78264
  38                   -0.02537  -1.55981
  39                   -0.01960  -1.33698
  40                   -0.01423  -1.11415
  41                   -0.00946  -0.89132
  42                   -0.00548  -0.66850
  43                   -0.00249  -0.44568
  44                   -0.00063  -0.22288
  45                    0.00000   0.00000
  46                   -0.00063   0.22288
  47                   -0.00249   0.44568
  48                   -0.00548   0.66850
  49                   -0.00946   0.89132
  50                   -0.01423   1.11415
  51                   -0.01960   1.33698
  52                   -0.02537   1.55981
  53                   -0.03135   1.78264
  54                   -0.03735   2.00547
  55                   -0.04321   2.22830
  56                   -0.04879   2.45112
  57                   -0.05398   2.67392
  58                   -0.05869   2.89668
  59                   -0.06288   3.11941
  60                   -0.06655   3.34209
  61                   -0.06973   3.56476
  62                   -0.07248   3.78744
  63                   -0.07486   4.01016
  64                   -0.07693   4.23291
  65                   -0.07872   4.45568
  66                   -0.08027   4.67844
  67                   -0.08162   4.90120
  68                   -0.08280   5.12395
  69                   -0.08382   5.34671
  70                   -0.08472   5.56946
  71                   -0.08551   5.79223
  72                   -0.08620   6.01500
  73                   -0.08682   6.23779
  74                   -0.08736   6.46057
  75                   -0.08784   6.68336
  76                   -0.08826   6.90614
  77                   -0.08863   7.12891
  78                   -0.08896   7.35167
  79                   -0.08924   7.57442
  80                   -0.08949   7.79717
  81                   -0.08971   8.01993
  82                   -0.08990   8.24269
  83                   -0.09007   8.46547
  84                   -0.09021   8.68826
  85                   -0.09033   8.91107
  86                   -0.09043   9.13389
  87                   -0.09051   9.35672
  88                   -0.09057   9.57955
  89                   -0.09061   9.80230
 --------------------------------------------------------------------------
 
 Total number of points:                   88
 Total number of gradient calculations:    89
 Total number of Hessian calculations:     89
 IRC-IRC-IRC-IRC-IRC-IRC-IRC-IRC-IRC-IRC-IRC-IRC-IRC-IRC-IRC-IRC-IRC-IRC
                          Input orientation:                          
 ---------------------------------------------------------------------
 Center     Atomic      Atomic             Coordinates (Angstroms)
 Number     Number       Type             X           Y           Z
 ---------------------------------------------------------------------
      1          6           0       -2.487282   -1.931661   -0.157678
      2          6           0       -1.106249   -1.995508   -0.329087
      3          6           0       -0.289688   -0.883310   -0.040700
      4          6           0       -0.884787    0.294789    0.439473
      5          6           0       -2.280695    0.352567    0.600047
      6          6           0       -3.079592   -0.750061    0.304405
      7          1           0        1.380495   -1.575219   -1.197705
      8          1           0       -3.106044   -2.798079   -0.385830
      9          1           0       -0.652653   -2.915532   -0.694455
     10          6           0        1.179054   -1.036481   -0.248945
     11          6           0       -0.108497    1.539127    0.777387
     12          1           0       -2.744364    1.270779    0.960292
     13          1           0       -4.158836   -0.693855    0.432339
     14          1           0       -0.418433    1.971782    1.752248
     15          8           0        1.809295    1.201315   -1.535826
     16         16           0        2.113246    0.528650   -0.270001
     17          8           0        1.286225    1.309204    0.977866
     18          1           0       -0.226089    2.305540   -0.019579
     19          1           0        1.606401   -1.664467    0.559859
 ---------------------------------------------------------------------
                    Distance matrix (angstroms):
                    1          2          3          4          5
     1  C    0.000000
     2  C    1.393094   0.000000
     3  C    2.437651   1.409583   0.000000
     4  C    2.807429   2.425941   1.404502   0.000000
     5  C    2.415476   2.784973   2.429415   1.406301   0.000000
     6  C    1.400189   2.417961   2.814324   2.434569   1.393352
     7  H    4.020995   2.667402   2.146371   3.362853   4.511383
     8  H    1.088852   2.155578   3.423056   3.896272   3.402900
     9  H    2.149883   1.088893   2.165426   3.412601   3.873852
    10  C    3.775142   2.479671   1.491319   2.550616   3.823625
    11  C    4.310374   3.835810   2.563258   1.505054   2.481494
    12  H    3.401700   3.874861   3.415774   2.163755   1.089898
    13  H    2.162030   3.404755   3.902559   3.420068   2.156511
    14  H    4.812985   4.532598   3.373839   2.180177   2.723498
    15  O    5.493214   4.491803   3.314633   3.461455   4.691518
    16  S    5.218295   4.091456   2.796480   3.089700   4.482712
    17  O    5.102159   4.284061   2.885844   2.456053   3.712252
    18  H    4.804783   4.401079   3.189554   2.165117   2.901628
    19  H    4.164672   2.873723   2.136828   3.171624   4.379447
                    6          7          8          9         10
     6  C    0.000000
     7  H    4.778033   0.000000
     8  H    2.161366   4.720546   0.000000
     9  H    3.402503   2.486642   2.475514   0.000000
    10  C    4.303987   1.109488   4.635087   2.661666   0.000000
    11  C    3.780409   3.977088   5.399047   4.722966   3.056943
    12  H    2.150897   5.456291   4.300983   4.963733   4.709449
    13  H    1.088252   5.841064   2.491090   4.301027   5.392088
    14  H    4.072647   4.951725   5.877602   5.470563   3.950492
    15  O    5.576337   2.829723   6.440356   4.870064   2.657254
    16  S    5.378719   2.413260   6.190438   4.437651   1.822853
    17  O    4.873857   3.614124   6.166155   4.940071   2.649300
    18  H    4.193345   4.362268   5.871559   5.281762   3.632649
    19  H    4.781206   1.774269   4.938273   2.870852   1.109574
                   11         12         13         14         15
    11  C    0.000000
    12  H    2.655797   0.000000
    13  H    4.637942   2.477751   0.000000
    14  H    1.110678   2.555104   4.778953   0.000000
    15  O    3.023739   5.193384   6.563835   4.045717   0.000000
    16  S    2.655980   5.065644   6.428593   3.547044   1.465325
    17  O    1.427693   4.030810   5.827395   1.986085   2.569804
    18  H    1.111923   2.893542   4.966598   1.813219   2.767870
    19  H    3.640221   5.263570   5.847761   4.329440   3.556089
                   16         17         18         19
    16  S    0.000000
    17  O    1.688313   0.000000
    18  H    2.948311   2.067529   0.000000
    19  H    2.399025   3.019928   4.410751   0.000000
 Symmetry turned off by external request.
 Stoichiometry    C8H8O2S
 Framework group  C1[X(C8H8O2S)]
 Deg. of freedom    51
 Full point group                 C1      NOp   1
 Rotational constants (GHZ):           2.1892342           0.7280601           0.6076725

 **********************************************************************

            Population analysis using the SCF Density.

 **********************************************************************

 Alpha  occ. eigenvalues --   -1.16529  -1.10385  -1.06552  -1.00345  -0.98055
 Alpha  occ. eigenvalues --   -0.91980  -0.86126  -0.80993  -0.78527  -0.70709
 Alpha  occ. eigenvalues --   -0.64975  -0.61695  -0.59144  -0.58723  -0.57119
 Alpha  occ. eigenvalues --   -0.54484  -0.53639  -0.52649  -0.51598  -0.48760
 Alpha  occ. eigenvalues --   -0.47384  -0.46768  -0.45188  -0.44637  -0.40986
 Alpha  occ. eigenvalues --   -0.39649  -0.35909  -0.34813  -0.32998
 Alpha virt. eigenvalues --    0.00376   0.00563   0.01043   0.02617   0.04853
 Alpha virt. eigenvalues --    0.08959   0.11117   0.12359   0.13677   0.16169
 Alpha virt. eigenvalues --    0.17044   0.17436   0.17782   0.17925   0.18492
 Alpha virt. eigenvalues --    0.19317   0.20020   0.20212   0.20630   0.20889
 Alpha virt. eigenvalues --    0.20985   0.21579   0.22002   0.22225   0.22602
 Alpha virt. eigenvalues --    0.22739   0.23289   0.26537
          Condensed to atoms (all electrons):
               1          2          3          4          5          6
     1  C    4.118241   0.000000   0.000000   0.000000   0.000000   0.000000
     2  C    0.000000   4.204317   0.000000   0.000000   0.000000   0.000000
     3  C    0.000000   0.000000   3.895693   0.000000   0.000000   0.000000
     4  C    0.000000   0.000000   0.000000   4.091240   0.000000   0.000000
     5  C    0.000000   0.000000   0.000000   0.000000   4.141334   0.000000
     6  C    0.000000   0.000000   0.000000   0.000000   0.000000   4.158924
     7  H    0.000000   0.000000   0.000000   0.000000   0.000000   0.000000
     8  H    0.000000   0.000000   0.000000   0.000000   0.000000   0.000000
     9  H    0.000000   0.000000   0.000000   0.000000   0.000000   0.000000
    10  C    0.000000   0.000000   0.000000   0.000000   0.000000   0.000000
    11  C    0.000000   0.000000   0.000000   0.000000   0.000000   0.000000
    12  H    0.000000   0.000000   0.000000   0.000000   0.000000   0.000000
    13  H    0.000000   0.000000   0.000000   0.000000   0.000000   0.000000
    14  H    0.000000   0.000000   0.000000   0.000000   0.000000   0.000000
    15  O    0.000000   0.000000   0.000000   0.000000   0.000000   0.000000
    16  S    0.000000   0.000000   0.000000   0.000000   0.000000   0.000000
    17  O    0.000000   0.000000   0.000000   0.000000   0.000000   0.000000
    18  H    0.000000   0.000000   0.000000   0.000000   0.000000   0.000000
    19  H    0.000000   0.000000   0.000000   0.000000   0.000000   0.000000
               7          8          9         10         11         12
     1  C    0.000000   0.000000   0.000000   0.000000   0.000000   0.000000
     2  C    0.000000   0.000000   0.000000   0.000000   0.000000   0.000000
     3  C    0.000000   0.000000   0.000000   0.000000   0.000000   0.000000
     4  C    0.000000   0.000000   0.000000   0.000000   0.000000   0.000000
     5  C    0.000000   0.000000   0.000000   0.000000   0.000000   0.000000
     6  C    0.000000   0.000000   0.000000   0.000000   0.000000   0.000000
     7  H    0.804701   0.000000   0.000000   0.000000   0.000000   0.000000
     8  H    0.000000   0.854520   0.000000   0.000000   0.000000   0.000000
     9  H    0.000000   0.000000   0.847976   0.000000   0.000000   0.000000
    10  C    0.000000   0.000000   0.000000   4.607300   0.000000   0.000000
    11  C    0.000000   0.000000   0.000000   0.000000   4.022196   0.000000
    12  H    0.000000   0.000000   0.000000   0.000000   0.000000   0.852224
    13  H    0.000000   0.000000   0.000000   0.000000   0.000000   0.000000
    14  H    0.000000   0.000000   0.000000   0.000000   0.000000   0.000000
    15  O    0.000000   0.000000   0.000000   0.000000   0.000000   0.000000
    16  S    0.000000   0.000000   0.000000   0.000000   0.000000   0.000000
    17  O    0.000000   0.000000   0.000000   0.000000   0.000000   0.000000
    18  H    0.000000   0.000000   0.000000   0.000000   0.000000   0.000000
    19  H    0.000000   0.000000   0.000000   0.000000   0.000000   0.000000
              13         14         15         16         17         18
     1  C    0.000000   0.000000   0.000000   0.000000   0.000000   0.000000
     2  C    0.000000   0.000000   0.000000   0.000000   0.000000   0.000000
     3  C    0.000000   0.000000   0.000000   0.000000   0.000000   0.000000
     4  C    0.000000   0.000000   0.000000   0.000000   0.000000   0.000000
     5  C    0.000000   0.000000   0.000000   0.000000   0.000000   0.000000
     6  C    0.000000   0.000000   0.000000   0.000000   0.000000   0.000000
     7  H    0.000000   0.000000   0.000000   0.000000   0.000000   0.000000
     8  H    0.000000   0.000000   0.000000   0.000000   0.000000   0.000000
     9  H    0.000000   0.000000   0.000000   0.000000   0.000000   0.000000
    10  C    0.000000   0.000000   0.000000   0.000000   0.000000   0.000000
    11  C    0.000000   0.000000   0.000000   0.000000   0.000000   0.000000
    12  H    0.000000   0.000000   0.000000   0.000000   0.000000   0.000000
    13  H    0.850703   0.000000   0.000000   0.000000   0.000000   0.000000
    14  H    0.000000   0.844033   0.000000   0.000000   0.000000   0.000000
    15  O    0.000000   0.000000   6.696169   0.000000   0.000000   0.000000
    16  S    0.000000   0.000000   0.000000   4.785174   0.000000   0.000000
    17  O    0.000000   0.000000   0.000000   0.000000   6.567743   0.000000
    18  H    0.000000   0.000000   0.000000   0.000000   0.000000   0.851180
    19  H    0.000000   0.000000   0.000000   0.000000   0.000000   0.000000
              19
     1  C    0.000000
     2  C    0.000000
     3  C    0.000000
     4  C    0.000000
     5  C    0.000000
     6  C    0.000000
     7  H    0.000000
     8  H    0.000000
     9  H    0.000000
    10  C    0.000000
    11  C    0.000000
    12  H    0.000000
    13  H    0.000000
    14  H    0.000000
    15  O    0.000000
    16  S    0.000000
    17  O    0.000000
    18  H    0.000000
    19  H    0.806333
 Mulliken charges:
               1
     1  C   -0.118241
     2  C   -0.204317
     3  C    0.104307
     4  C   -0.091240
     5  C   -0.141334
     6  C   -0.158924
     7  H    0.195299
     8  H    0.145480
     9  H    0.152024
    10  C   -0.607300
    11  C   -0.022196
    12  H    0.147776
    13  H    0.149297
    14  H    0.155967
    15  O   -0.696169
    16  S    1.214826
    17  O   -0.567743
    18  H    0.148820
    19  H    0.193667
 Sum of Mulliken charges =   0.00000
 Mulliken charges with hydrogens summed into heavy atoms:
               1
     1  C    0.027239
     2  C   -0.052293
     3  C    0.104307
     4  C   -0.091240
     5  C    0.006442
     6  C   -0.009626
    10  C   -0.218334
    11  C    0.282590
    15  O   -0.696169
    16  S    1.214826
    17  O   -0.567743
 APT charges:
               1
     1  C   -0.118241
     2  C   -0.204317
     3  C    0.104307
     4  C   -0.091240
     5  C   -0.141334
     6  C   -0.158924
     7  H    0.195299
     8  H    0.145480
     9  H    0.152024
    10  C   -0.607300
    11  C   -0.022196
    12  H    0.147776
    13  H    0.149297
    14  H    0.155967
    15  O   -0.696169
    16  S    1.214826
    17  O   -0.567743
    18  H    0.148820
    19  H    0.193667
 Sum of APT charges =   0.00000
 APT charges with hydrogens summed into heavy atoms:
               1
     1  C    0.027239
     2  C   -0.052293
     3  C    0.104307
     4  C   -0.091240
     5  C    0.006442
     6  C   -0.009626
    10  C   -0.218334
    11  C    0.282590
    15  O   -0.696169
    16  S    1.214826
    17  O   -0.567743
 Charge=              0.0000 electrons
 Dipole moment (field-independent basis, Debye):
    X=             -0.1372    Y=             -3.1278    Z=              1.7798  Tot=              3.6013
 N-N= 3.428908474872D+02 E-N=-5.386783778449D+02  KE=-1.098328604233D+02
  Exact polarizability:       0.000       0.000       0.000       0.000       0.000       0.000
 Approx polarizability:      86.603       3.318      89.810      -8.989      12.959      50.542
