 Default is to use a total of   8 processors:
                                8 via shared-memory
                                1 via Linda
 Entering Link 1 = C:\G16W\l1.exe PID=     18712.
  
 Copyright (c) 1988-2019, Gaussian, Inc.  All Rights Reserved.
  
 This is part of the Gaussian(R) 16 program.  It is based on
 the Gaussian(R) 09 system (copyright 2009, Gaussian, Inc.),
 the Gaussian(R) 03 system (copyright 2003, Gaussian, Inc.),
 the Gaussian(R) 98 system (copyright 1998, Gaussian, Inc.),
 the Gaussian(R) 94 system (copyright 1995, Gaussian, Inc.),
 the Gaussian 92(TM) system (copyright 1992, Gaussian, Inc.),
 the Gaussian 90(TM) system (copyright 1990, Gaussian, Inc.),
 the Gaussian 88(TM) system (copyright 1988, Gaussian, Inc.),
 the Gaussian 86(TM) system (copyright 1986, Carnegie Mellon
 University), and the Gaussian 82(TM) system (copyright 1983,
 Carnegie Mellon University). Gaussian is a federally registered
 trademark of Gaussian, Inc.
  
 This software contains proprietary and confidential information,
 including trade secrets, belonging to Gaussian, Inc.
  
 This software is provided under written license and may be
 used, copied, transmitted, or stored only in accord with that
 written license.
  
 The following legend is applicable only to US Government
 contracts under FAR:
  
                    RESTRICTED RIGHTS LEGEND
  
 Use, reproduction and disclosure by the US Government is
 subject to restrictions as set forth in subparagraphs (a)
 and (c) of the Commercial Computer Software - Restricted
 Rights clause in FAR 52.227-19.
  
 Gaussian, Inc.
 340 Quinnipiac St., Bldg. 40, Wallingford CT 06492
  
  
 ---------------------------------------------------------------
 Warning -- This program may not be used in any manner that
 competes with the business of Gaussian, Inc. or will provide
 assistance to any competitor of Gaussian, Inc.  The licensee
 of this program is prohibited from giving any competitor of
 Gaussian, Inc. access to this program.  By using this program,
 the user acknowledges that Gaussian, Inc. is engaged in the
 business of creating and licensing software in the field of
 computational chemistry and represents and warrants to the
 licensee that it is not a competitor of Gaussian, Inc. and that
 it will not use this program in any manner prohibited above.
 ---------------------------------------------------------------
  

 Cite this work as:
 Gaussian 16, Revision C.01,
 M. J. Frisch, G. W. Trucks, H. B. Schlegel, G. E. Scuseria, 
 M. A. Robb, J. R. Cheeseman, G. Scalmani, V. Barone, 
 G. A. Petersson, H. Nakatsuji, X. Li, M. Caricato, A. V. Marenich, 
 J. Bloino, B. G. Janesko, R. Gomperts, B. Mennucci, H. P. Hratchian, 
 J. V. Ortiz, A. F. Izmaylov, J. L. Sonnenberg, D. Williams-Young, 
 F. Ding, F. Lipparini, F. Egidi, J. Goings, B. Peng, A. Petrone, 
 T. Henderson, D. Ranasinghe, V. G. Zakrzewski, J. Gao, N. Rega, 
 G. Zheng, W. Liang, M. Hada, M. Ehara, K. Toyota, R. Fukuda, 
 J. Hasegawa, M. Ishida, T. Nakajima, Y. Honda, O. Kitao, H. Nakai, 
 T. Vreven, K. Throssell, J. A. Montgomery, Jr., J. E. Peralta, 
 F. Ogliaro, M. J. Bearpark, J. J. Heyd, E. N. Brothers, K. N. Kudin, 
 V. N. Staroverov, T. A. Keith, R. Kobayashi, J. Normand, 
 K. Raghavachari, A. P. Rendell, J. C. Burant, S. S. Iyengar, 
 J. Tomasi, M. Cossi, J. M. Millam, M. Klene, C. Adamo, R. Cammi, 
 J. W. Ochterski, R. L. Martin, K. Morokuma, O. Farkas, 
 J. B. Foresman, and D. J. Fox, Gaussian, Inc., Wallingford CT, 2019.
 
 ******************************************
 Gaussian 16:  EM64W-G16RevC.01 30-May-2019
                15-Nov-2025 
 ******************************************
 %chk=C:\Users\al6323\OneDrive - Imperial College London\Desktop\TSR20251115\Exer
 cise 3\DA reaction\TS_exo_Berny_IRC_product.chk
 Default route: MaxDisk=10GB
 --------------------------------------------------------------
 # opt=tight freq rpm6 nosymm geom=connectivity scf=(tight,xqc)
 --------------------------------------------------------------
 1/7=10,18=20,19=15,26=1,38=1,57=2/1,3;
 2/9=110,12=2,15=1,17=6,18=5,40=1/2;
 3/5=2,25=1,41=3900000,71=1,116=1/1,2,3;
 4/35=1/1;
 5/5=2,8=3,13=1,32=2,35=1,38=5/2,8;
 6/7=2,8=2,9=2,10=2,28=1/1;
 7/30=1/1,2,3,16;
 1/7=10,18=20,19=15,26=1/3(2);
 2/9=110,15=1/2;
 99//99;
 2/9=110,15=1/2;
 3/5=2,25=1,41=3900000,71=1,116=1,135=20/1,2,3;
 4/5=5,16=3,35=1/1;
 5/5=2,8=3,13=1,32=2,35=1,38=5/2,8;
 7/30=1/1,2,3,16;
 1/7=10,18=20,19=15,26=1/3(-5);
 2/9=110,15=1/2;
 6/7=2,8=2,9=2,10=2,19=2,28=1/1;
 99/9=1/99;
 -------------------
 Title Card Required
 -------------------
 Symbolic Z-matrix:
 Charge =  0 Multiplicity = 1
 C                    -2.54019  -1.87042  -0.42359 
 C                    -1.15034  -1.97605  -0.34628 
 C                    -0.35304  -0.8198   -0.34903 
 C                    -0.96918   0.44569  -0.4173 
 C                    -2.36397   0.54311  -0.49154 
 C                    -3.14831  -0.61242  -0.50073 
 H                     1.55458  -0.7643   -1.31887 
 H                    -3.15323  -2.77086  -0.42432 
 H                    -0.68482  -2.95816  -0.28981 
 C                     1.12557  -0.92084  -0.30496 
 C                    -0.10704   1.6744   -0.35091 
 H                    -2.83979   1.52202  -0.53896 
 H                    -4.23226  -0.53421  -0.56276 
 H                    -0.67571   2.59982  -0.12859 
 S                     1.87559   0.2978    0.85611 
 O                     3.12002   0.68349   0.18854 
 O                     0.77147   1.56356   0.77535 
 H                     0.48541   1.82815  -1.273 
 H                     1.47631  -1.92549  -0.00505 
 

 GradGradGradGradGradGradGradGradGradGradGradGradGradGradGradGradGradGrad
 Berny optimization.
 Initialization pass.
                           ----------------------------
                           !    Initial Parameters    !
                           ! (Angstroms and Degrees)  !
 --------------------------                            --------------------------
 ! Name  Definition              Value          Derivative Info.                !
 --------------------------------------------------------------------------------
 ! R1    R(1,2)                  1.396          estimate D2E/DX2                !
 ! R2    R(1,6)                  1.3994         estimate D2E/DX2                !
 ! R3    R(1,8)                  1.0893         estimate D2E/DX2                !
 ! R4    R(2,3)                  1.4045         estimate D2E/DX2                !
 ! R5    R(2,9)                  1.0883         estimate D2E/DX2                !
 ! R6    R(3,4)                  1.4092         estimate D2E/DX2                !
 ! R7    R(3,10)                 1.4827         estimate D2E/DX2                !
 ! R8    R(4,5)                  1.4002         estimate D2E/DX2                !
 ! R9    R(4,11)                 1.5025         estimate D2E/DX2                !
 ! R10   R(5,6)                  1.3966         estimate D2E/DX2                !
 ! R11   R(5,12)                 1.0895         estimate D2E/DX2                !
 ! R12   R(6,13)                 1.0885         estimate D2E/DX2                !
 ! R13   R(7,10)                 1.112          estimate D2E/DX2                !
 ! R14   R(10,15)                1.8427         estimate D2E/DX2                !
 ! R15   R(10,19)                1.1056         estimate D2E/DX2                !
 ! R16   R(11,14)                1.1087         estimate D2E/DX2                !
 ! R17   R(11,17)                1.4327         estimate D2E/DX2                !
 ! R18   R(11,18)                1.1068         estimate D2E/DX2                !
 ! R19   R(15,16)                1.4639         estimate D2E/DX2                !
 ! R20   R(15,17)                1.6816         estimate D2E/DX2                !
 ! A1    A(2,1,6)              120.246          estimate D2E/DX2                !
 ! A2    A(2,1,8)              119.8541         estimate D2E/DX2                !
 ! A3    A(6,1,8)              119.8998         estimate D2E/DX2                !
 ! A4    A(1,2,3)              120.1838         estimate D2E/DX2                !
 ! A5    A(1,2,9)              119.8025         estimate D2E/DX2                !
 ! A6    A(3,2,9)              120.0127         estimate D2E/DX2                !
 ! A7    A(2,3,4)              119.4195         estimate D2E/DX2                !
 ! A8    A(2,3,10)             120.6603         estimate D2E/DX2                !
 ! A9    A(4,3,10)             119.9114         estimate D2E/DX2                !
 ! A10   A(3,4,5)              120.0403         estimate D2E/DX2                !
 ! A11   A(3,4,11)             118.7756         estimate D2E/DX2                !
 ! A12   A(5,4,11)             121.1351         estimate D2E/DX2                !
 ! A13   A(4,5,6)              120.148          estimate D2E/DX2                !
 ! A14   A(4,5,12)             119.9932         estimate D2E/DX2                !
 ! A15   A(6,5,12)             119.8585         estimate D2E/DX2                !
 ! A16   A(1,6,5)              119.958          estimate D2E/DX2                !
 ! A17   A(1,6,13)             120.0304         estimate D2E/DX2                !
 ! A18   A(5,6,13)             120.0109         estimate D2E/DX2                !
 ! A19   A(3,10,7)             110.3676         estimate D2E/DX2                !
 ! A20   A(3,10,15)            112.3058         estimate D2E/DX2                !
 ! A21   A(3,10,19)            112.728          estimate D2E/DX2                !
 ! A22   A(7,10,15)            108.9276         estimate D2E/DX2                !
 ! A23   A(7,10,19)            104.6466         estimate D2E/DX2                !
 ! A24   A(15,10,19)           107.5121         estimate D2E/DX2                !
 ! A25   A(4,11,14)            113.4            estimate D2E/DX2                !
 ! A26   A(4,11,17)            108.8648         estimate D2E/DX2                !
 ! A27   A(4,11,18)            112.5795         estimate D2E/DX2                !
 ! A28   A(14,11,17)           102.7952         estimate D2E/DX2                !
 ! A29   A(14,11,18)           109.006          estimate D2E/DX2                !
 ! A30   A(17,11,18)           109.722          estimate D2E/DX2                !
 ! A31   A(10,15,16)           103.4684         estimate D2E/DX2                !
 ! A32   A(10,15,17)           101.5536         estimate D2E/DX2                !
 ! A33   A(16,15,17)           109.7509         estimate D2E/DX2                !
 ! A34   A(11,17,15)           119.9082         estimate D2E/DX2                !
 ! D1    D(6,1,2,3)             -0.1701         estimate D2E/DX2                !
 ! D2    D(6,1,2,9)           -179.8025         estimate D2E/DX2                !
 ! D3    D(8,1,2,3)            179.801          estimate D2E/DX2                !
 ! D4    D(8,1,2,9)              0.1686         estimate D2E/DX2                !
 ! D5    D(2,1,6,5)             -0.4244         estimate D2E/DX2                !
 ! D6    D(2,1,6,13)           179.8858         estimate D2E/DX2                !
 ! D7    D(8,1,6,5)            179.6044         estimate D2E/DX2                !
 ! D8    D(8,1,6,13)            -0.0853         estimate D2E/DX2                !
 ! D9    D(1,2,3,4)              0.6135         estimate D2E/DX2                !
 ! D10   D(1,2,3,10)          -178.3077         estimate D2E/DX2                !
 ! D11   D(9,2,3,4)           -179.7549         estimate D2E/DX2                !
 ! D12   D(9,2,3,10)             1.3239         estimate D2E/DX2                !
 ! D13   D(2,3,4,5)             -0.4682         estimate D2E/DX2                !
 ! D14   D(2,3,4,11)           177.0158         estimate D2E/DX2                !
 ! D15   D(10,3,4,5)           178.4612         estimate D2E/DX2                !
 ! D16   D(10,3,4,11)           -4.0547         estimate D2E/DX2                !
 ! D17   D(2,3,10,7)           101.3856         estimate D2E/DX2                !
 ! D18   D(2,3,10,15)         -136.8588         estimate D2E/DX2                !
 ! D19   D(2,3,10,19)          -15.226          estimate D2E/DX2                !
 ! D20   D(4,3,10,7)           -77.5304         estimate D2E/DX2                !
 ! D21   D(4,3,10,15)           44.2253         estimate D2E/DX2                !
 ! D22   D(4,3,10,19)          165.8581         estimate D2E/DX2                !
 ! D23   D(3,4,5,6)             -0.1213         estimate D2E/DX2                !
 ! D24   D(3,4,5,12)           179.6751         estimate D2E/DX2                !
 ! D25   D(11,4,5,6)          -177.5449         estimate D2E/DX2                !
 ! D26   D(11,4,5,12)            2.2515         estimate D2E/DX2                !
 ! D27   D(3,4,11,14)         -163.922          estimate D2E/DX2                !
 ! D28   D(3,4,11,17)          -50.164          estimate D2E/DX2                !
 ! D29   D(3,4,11,18)           71.727          estimate D2E/DX2                !
 ! D30   D(5,4,11,14)           13.5335         estimate D2E/DX2                !
 ! D31   D(5,4,11,17)          127.2915         estimate D2E/DX2                !
 ! D32   D(5,4,11,18)         -110.8175         estimate D2E/DX2                !
 ! D33   D(4,5,6,1)              0.5691         estimate D2E/DX2                !
 ! D34   D(4,5,6,13)          -179.7411         estimate D2E/DX2                !
 ! D35   D(12,5,6,1)          -179.2276         estimate D2E/DX2                !
 ! D36   D(12,5,6,13)            0.4622         estimate D2E/DX2                !
 ! D37   D(3,10,15,16)        -143.9917         estimate D2E/DX2                !
 ! D38   D(3,10,15,17)         -30.1862         estimate D2E/DX2                !
 ! D39   D(7,10,15,16)         -21.4185         estimate D2E/DX2                !
 ! D40   D(7,10,15,17)          92.387          estimate D2E/DX2                !
 ! D41   D(19,10,15,16)         91.4428         estimate D2E/DX2                !
 ! D42   D(19,10,15,17)       -154.7517         estimate D2E/DX2                !
 ! D43   D(4,11,17,15)          60.9812         estimate D2E/DX2                !
 ! D44   D(14,11,17,15)       -178.4894         estimate D2E/DX2                !
 ! D45   D(18,11,17,15)        -62.6287         estimate D2E/DX2                !
 ! D46   D(10,15,17,11)        -20.858          estimate D2E/DX2                !
 ! D47   D(16,15,17,11)         88.1673         estimate D2E/DX2                !
 --------------------------------------------------------------------------------
 Trust Radius=3.00D-01 FncErr=1.00D-07 GrdErr=1.00D-07 EigMax=2.50D+02 EigMin=1.00D-04
 Number of steps in this run=    111 maximum allowed number of steps=    114.
 GradGradGradGradGradGradGradGradGradGradGradGradGradGradGradGradGradGrad

                          Input orientation:                          
 ---------------------------------------------------------------------
 Center     Atomic      Atomic             Coordinates (Angstroms)
 Number     Number       Type             X           Y           Z
 ---------------------------------------------------------------------
      1          6           0       -2.540192   -1.870424   -0.423591
      2          6           0       -1.150335   -1.976052   -0.346277
      3          6           0       -0.353038   -0.819801   -0.349025
      4          6           0       -0.969175    0.445692   -0.417299
      5          6           0       -2.363970    0.543109   -0.491542
      6          6           0       -3.148315   -0.612419   -0.500728
      7          1           0        1.554584   -0.764305   -1.318871
      8          1           0       -3.153235   -2.770857   -0.424325
      9          1           0       -0.684817   -2.958155   -0.289808
     10          6           0        1.125568   -0.920839   -0.304958
     11          6           0       -0.107043    1.674396   -0.350906
     12          1           0       -2.839789    1.522022   -0.538955
     13          1           0       -4.232256   -0.534205   -0.562759
     14          1           0       -0.675715    2.599820   -0.128593
     15         16           0        1.875589    0.297795    0.856106
     16          8           0        3.120024    0.683494    0.188544
     17          8           0        0.771474    1.563560    0.775345
     18          1           0        0.485410    1.828155   -1.272999
     19          1           0        1.476311   -1.925493   -0.005054
 ---------------------------------------------------------------------
                    Distance matrix (angstroms):
                    1          2          3          4          5
     1  C    0.000000
     2  C    1.396007   0.000000
     3  C    2.427552   1.404495   0.000000
     4  C    2.798665   2.429549   1.409170   0.000000
     5  C    2.420912   2.800033   2.433451   1.400162   0.000000
     6  C    1.399408   2.423896   2.807061   2.423883   1.396612
     7  H    4.334998   3.119432   2.140725   2.940456   4.212940
     8  H    1.089312   2.156250   3.413706   3.887975   3.407320
     9  H    2.154871   1.088312   2.164750   3.418083   3.888329
    10  C    3.788612   2.508967   1.482709   2.503593   3.788777
    11  C    4.300145   3.796611   2.506300   1.502463   2.528499
    12  H    3.407603   3.889460   3.421131   2.161592   1.089459
    13  H    2.160540   3.409402   3.895585   3.410140   2.157817
    14  H    4.852462   4.605568   3.441877   2.193112   2.685516
    15  S    5.083102   3.971438   2.769141   3.120276   4.455356
    16  O    6.239812   5.059168   3.822439   4.140670   5.527786
    17  O    4.919028   4.180938   2.865161   2.387863   3.532327
    18  H    4.853375   4.243403   2.927182   2.181569   3.221953
    19  H    4.038626   2.649199   2.165038   3.431161   4.591125
                    6          7          8          9         10
     6  C    0.000000
     7  H    4.775948   0.000000
     8  H    2.159796   5.195192   0.000000
     9  H    3.408194   3.299525   2.479165   0.000000
    10  C    4.289467   1.112014   4.663150   2.725506   0.000000
    11  C    3.808058   3.105675   5.389337   4.668842   2.873445
    12  H    2.156962   5.014585   4.305833   4.977746   4.663301
    13  H    1.088528   5.840562   2.487180   4.305155   5.377939
    14  H    4.070714   4.208126   5.921971   5.560320   3.958632
    15  S    5.282906   2.441644   6.028698   4.297675   1.842735
    16  O    6.437900   2.611326   7.187623   5.288407   2.606776
    17  O    4.661330   3.227686   5.969064   4.868393   2.732156
    18  H    4.444858   2.804654   5.925445   5.024426   2.983936
    19  H    4.832910   1.755164   4.724735   2.412043   1.105574
                   11         12         13         14         15
    11  C    0.000000
    12  H    2.743443   0.000000
    13  H    4.684036   2.483466   0.000000
    14  H    1.108702   2.452195   4.760210   0.000000
    15  S    2.698655   5.067516   6.325439   3.574647   0.000000
    16  O    3.418604   6.062322   7.490212   4.263862   1.463906
    17  O    1.432662   3.843219   5.588243   1.996321   1.681592
    18  H    1.106751   3.418989   5.323680   1.803703   2.967775
    19  H    3.947889   5.549696   5.902072   5.012478   2.417443
                   16         17         18         19
    16  O    0.000000
    17  O    2.575760   0.000000
    18  H    3.222972   2.085080   0.000000
    19  H    3.089674   3.644079   4.084048   0.000000
 Symmetry turned off by external request.
 Stoichiometry    C8H8O2S
 Framework group  C1[X(C8H8O2S)]
 Deg. of freedom    51
 Full point group                 C1      NOp   1
 Rotational constants (GHZ):           2.4186588           0.6905479           0.5684765
 Standard basis: VSTO-6G (5D, 7F)
    57 basis functions,   348 primitive gaussians,    58 cartesian basis functions
    29 alpha electrons       29 beta electrons
       nuclear repulsion energy       341.0667615193 Hartrees.
 Integral buffers will be    131072 words long.
 Regular integral format.
 Two-electron integral symmetry is turned off.
 Do NDO integrals.
 One-electron integrals computed using PRISM.
 NBasis=    57 RedAO= F EigKep=  0.00D+00  NBF=    57
 NBsUse=    57 1.00D-04 EigRej=  0.00D+00 NBFU=    57
 Nonelectrostatic core Hamiltonian diagonalized for initial guess.
 Keep J ints in memory in canonical form, NReq=1859402.
 Overlap will be assumed to be unity.
 Requested convergence on RMS density matrix=1.00D-08 within  32 cycles.
 Requested convergence on MAX density matrix=1.00D-06.
 Requested convergence on             energy=1.00D-06.
 No special actions if energy rises.
 SCF Done:  E(RPM6) = -0.788718586599E-01 A.U. after   22 cycles
            NFock= 21  Conv=0.28D-08     -V/T= 0.9993
 QCSCF skips out because SCF is already converged.

 **********************************************************************

            Population analysis using the SCF Density.

 **********************************************************************

 Alpha  occ. eigenvalues --   -1.15976  -1.11229  -1.07154  -1.00408  -0.98266
 Alpha  occ. eigenvalues --   -0.91675  -0.87083  -0.80670  -0.78776  -0.71688
 Alpha  occ. eigenvalues --   -0.65353  -0.62149  -0.61065  -0.58661  -0.56317
 Alpha  occ. eigenvalues --   -0.54452  -0.53554  -0.52747  -0.51854  -0.49440
 Alpha  occ. eigenvalues --   -0.47644  -0.46801  -0.45627  -0.44899  -0.40694
 Alpha  occ. eigenvalues --   -0.39926  -0.36632  -0.35907  -0.32605
 Alpha virt. eigenvalues --   -0.00519  -0.00222   0.01035   0.03073   0.04478
 Alpha virt. eigenvalues --    0.08333   0.11278   0.12338   0.13329   0.15699
 Alpha virt. eigenvalues --    0.16407   0.16872   0.17351   0.17571   0.18314
 Alpha virt. eigenvalues --    0.19026   0.19521   0.19905   0.20428   0.20776
 Alpha virt. eigenvalues --    0.20997   0.21368   0.21501   0.21779   0.22141
 Alpha virt. eigenvalues --    0.23001   0.23415   0.26621
          Condensed to atoms (all electrons):
               1          2          3          4          5          6
     1  C    4.110839   0.000000   0.000000   0.000000   0.000000   0.000000
     2  C    0.000000   4.206676   0.000000   0.000000   0.000000   0.000000
     3  C    0.000000   0.000000   3.907016   0.000000   0.000000   0.000000
     4  C    0.000000   0.000000   0.000000   4.102345   0.000000   0.000000
     5  C    0.000000   0.000000   0.000000   0.000000   4.123435   0.000000
     6  C    0.000000   0.000000   0.000000   0.000000   0.000000   4.167082
     7  H    0.000000   0.000000   0.000000   0.000000   0.000000   0.000000
     8  H    0.000000   0.000000   0.000000   0.000000   0.000000   0.000000
     9  H    0.000000   0.000000   0.000000   0.000000   0.000000   0.000000
    10  C    0.000000   0.000000   0.000000   0.000000   0.000000   0.000000
    11  C    0.000000   0.000000   0.000000   0.000000   0.000000   0.000000
    12  H    0.000000   0.000000   0.000000   0.000000   0.000000   0.000000
    13  H    0.000000   0.000000   0.000000   0.000000   0.000000   0.000000
    14  H    0.000000   0.000000   0.000000   0.000000   0.000000   0.000000
    15  S    0.000000   0.000000   0.000000   0.000000   0.000000   0.000000
    16  O    0.000000   0.000000   0.000000   0.000000   0.000000   0.000000
    17  O    0.000000   0.000000   0.000000   0.000000   0.000000   0.000000
    18  H    0.000000   0.000000   0.000000   0.000000   0.000000   0.000000
    19  H    0.000000   0.000000   0.000000   0.000000   0.000000   0.000000
               7          8          9         10         11         12
     1  C    0.000000   0.000000   0.000000   0.000000   0.000000   0.000000
     2  C    0.000000   0.000000   0.000000   0.000000   0.000000   0.000000
     3  C    0.000000   0.000000   0.000000   0.000000   0.000000   0.000000
     4  C    0.000000   0.000000   0.000000   0.000000   0.000000   0.000000
     5  C    0.000000   0.000000   0.000000   0.000000   0.000000   0.000000
     6  C    0.000000   0.000000   0.000000   0.000000   0.000000   0.000000
     7  H    0.792093   0.000000   0.000000   0.000000   0.000000   0.000000
     8  H    0.000000   0.853986   0.000000   0.000000   0.000000   0.000000
     9  H    0.000000   0.000000   0.846067   0.000000   0.000000   0.000000
    10  C    0.000000   0.000000   0.000000   4.611402   0.000000   0.000000
    11  C    0.000000   0.000000   0.000000   0.000000   4.018025   0.000000
    12  H    0.000000   0.000000   0.000000   0.000000   0.000000   0.850885
    13  H    0.000000   0.000000   0.000000   0.000000   0.000000   0.000000
    14  H    0.000000   0.000000   0.000000   0.000000   0.000000   0.000000
    15  S    0.000000   0.000000   0.000000   0.000000   0.000000   0.000000
    16  O    0.000000   0.000000   0.000000   0.000000   0.000000   0.000000
    17  O    0.000000   0.000000   0.000000   0.000000   0.000000   0.000000
    18  H    0.000000   0.000000   0.000000   0.000000   0.000000   0.000000
    19  H    0.000000   0.000000   0.000000   0.000000   0.000000   0.000000
              13         14         15         16         17         18
     1  C    0.000000   0.000000   0.000000   0.000000   0.000000   0.000000
     2  C    0.000000   0.000000   0.000000   0.000000   0.000000   0.000000
     3  C    0.000000   0.000000   0.000000   0.000000   0.000000   0.000000
     4  C    0.000000   0.000000   0.000000   0.000000   0.000000   0.000000
     5  C    0.000000   0.000000   0.000000   0.000000   0.000000   0.000000
     6  C    0.000000   0.000000   0.000000   0.000000   0.000000   0.000000
     7  H    0.000000   0.000000   0.000000   0.000000   0.000000   0.000000
     8  H    0.000000   0.000000   0.000000   0.000000   0.000000   0.000000
     9  H    0.000000   0.000000   0.000000   0.000000   0.000000   0.000000
    10  C    0.000000   0.000000   0.000000   0.000000   0.000000   0.000000
    11  C    0.000000   0.000000   0.000000   0.000000   0.000000   0.000000
    12  H    0.000000   0.000000   0.000000   0.000000   0.000000   0.000000
    13  H    0.848978   0.000000   0.000000   0.000000   0.000000   0.000000
    14  H    0.000000   0.845719   0.000000   0.000000   0.000000   0.000000
    15  S    0.000000   0.000000   4.779397   0.000000   0.000000   0.000000
    16  O    0.000000   0.000000   0.000000   6.699613   0.000000   0.000000
    17  O    0.000000   0.000000   0.000000   0.000000   6.562150   0.000000
    18  H    0.000000   0.000000   0.000000   0.000000   0.000000   0.863602
    19  H    0.000000   0.000000   0.000000   0.000000   0.000000   0.000000
              19
     1  C    0.000000
     2  C    0.000000
     3  C    0.000000
     4  C    0.000000
     5  C    0.000000
     6  C    0.000000
     7  H    0.000000
     8  H    0.000000
     9  H    0.000000
    10  C    0.000000
    11  C    0.000000
    12  H    0.000000
    13  H    0.000000
    14  H    0.000000
    15  S    0.000000
    16  O    0.000000
    17  O    0.000000
    18  H    0.000000
    19  H    0.810688
 Mulliken charges:
               1
     1  C   -0.110839
     2  C   -0.206676
     3  C    0.092984
     4  C   -0.102345
     5  C   -0.123435
     6  C   -0.167082
     7  H    0.207907
     8  H    0.146014
     9  H    0.153933
    10  C   -0.611402
    11  C   -0.018025
    12  H    0.149115
    13  H    0.151022
    14  H    0.154281
    15  S    1.220603
    16  O   -0.699613
    17  O   -0.562150
    18  H    0.136398
    19  H    0.189312
 Sum of Mulliken charges =   0.00000
 Mulliken charges with hydrogens summed into heavy atoms:
               1
     1  C    0.035175
     2  C   -0.052744
     3  C    0.092984
     4  C   -0.102345
     5  C    0.025680
     6  C   -0.016061
    10  C   -0.214183
    11  C    0.272654
    15  S    1.220603
    16  O   -0.699613
    17  O   -0.562150
 Charge=              0.0000 electrons
 Dipole moment (field-independent basis, Debye):
    X=             -3.3331    Y=             -2.3355    Z=             -0.1503  Tot=              4.0727
 N-N= 3.410667615193D+02 E-N=-5.348687901906D+02  KE=-1.098374332911D+02
 Calling FoFJK, ICntrl=      2127 FMM=F ISym2X=0 I1Cent= 0 IOpClX= 0 NMat=1 NMatS=1 NMatT=0.
 -------------------------------------------------------------------
 Center     Atomic                   Forces (Hartrees/Bohr)
 Number     Number              X              Y              Z
 -------------------------------------------------------------------
      1        6          -0.000004632    0.000019922   -0.000068288
      2        6          -0.000062470    0.000001217    0.000040739
      3        6          -0.000012719   -0.000018850    0.000085171
      4        6          -0.000018398   -0.000014065    0.000038498
      5        6           0.000037322   -0.000002288   -0.000072470
      6        6           0.000006875    0.000017716   -0.000132484
      7        1          -0.000015882   -0.000024573    0.000053931
      8        1           0.000001967    0.000004556   -0.000008952
      9        1          -0.000010593    0.000003870    0.000007160
     10        6           0.000013639   -0.000077231    0.000145993
     11        6           0.000000742   -0.000019329    0.000100084
     12        1           0.000008739   -0.000003202   -0.000009573
     13        1           0.000019238    0.000001408   -0.000018072
     14        1           0.000000390   -0.000003648    0.000010447
     15       16           0.000276325    0.000087731   -0.000114858
     16        8          -0.000216983    0.000064364   -0.000231388
     17        8          -0.000004048   -0.000077578    0.000146274
     18        1           0.000000018    0.000001560    0.000011954
     19        1          -0.000019530    0.000038420    0.000015833
 -------------------------------------------------------------------
 Cartesian Forces:  Max     0.000276325 RMS     0.000074879

 GradGradGradGradGradGradGradGradGradGradGradGradGradGradGradGradGradGrad
 Berny optimization.
 FormGI is forming the generalized inverse of G from B-inverse, IUseBI=4.
 Internal  Forces:  Max     0.000320569 RMS     0.000099141
 Search for a local minimum.
 Step number   1 out of a maximum of  111
 All quantities printed in internal units (Hartrees-Bohrs-Radians)
 Mixed Optimization -- En-DIIS/RFO-DIIS
 Second derivative matrix not updated -- first step.
 ITU=  0
     Eigenvalues ---    0.00799   0.01292   0.01454   0.01661   0.02074
     Eigenvalues ---    0.02090   0.02100   0.02105   0.02115   0.02117
     Eigenvalues ---    0.02126   0.04306   0.06437   0.06663   0.06840
     Eigenvalues ---    0.07360   0.10011   0.11109   0.11498   0.11780
     Eigenvalues ---    0.14865   0.16000   0.16000   0.16000   0.16000
     Eigenvalues ---    0.19113   0.22000   0.22278   0.22784   0.23267
     Eigenvalues ---    0.23754   0.24631   0.31243   0.32388   0.32738
     Eigenvalues ---    0.32946   0.33006   0.33073   0.34875   0.34892
     Eigenvalues ---    0.34983   0.35008   0.36472   0.39020   0.40295
     Eigenvalues ---    0.41554   0.44307   0.45352   0.45854   0.46128
     Eigenvalues ---    0.89989
 RFO step:  Lambda=-4.13366009D-05 EMin= 7.99376782D-03
 Linear search not attempted -- first point.
 Iteration  1 RMS(Cart)=  0.01064894 RMS(Int)=  0.00007037
 Iteration  2 RMS(Cart)=  0.00008581 RMS(Int)=  0.00001067
 Iteration  3 RMS(Cart)=  0.00000000 RMS(Int)=  0.00001067
 Variable       Old X    -DE/DX   Delta X   Delta X   Delta X     New X
                                 (Linear)    (Quad)   (Total)
    R1        2.63807   0.00001   0.00000  -0.00002  -0.00002   2.63805
    R2        2.64450  -0.00001   0.00000  -0.00017  -0.00016   2.64433
    R3        2.05850   0.00000   0.00000  -0.00001  -0.00001   2.05849
    R4        2.65411   0.00003   0.00000   0.00017   0.00017   2.65428
    R5        2.05661  -0.00001   0.00000  -0.00002  -0.00002   2.05659
    R6        2.66294  -0.00002   0.00000   0.00029   0.00029   2.66323
    R7        2.80191   0.00003   0.00000   0.00050   0.00050   2.80241
    R8        2.64592  -0.00006   0.00000  -0.00009  -0.00009   2.64583
    R9        2.83924   0.00001   0.00000  -0.00019  -0.00019   2.83906
   R10        2.63921  -0.00004   0.00000  -0.00019  -0.00019   2.63903
   R11        2.05878  -0.00001   0.00000  -0.00002  -0.00002   2.05876
   R12        2.05702  -0.00002   0.00000  -0.00005  -0.00005   2.05697
   R13        2.10140  -0.00006   0.00000  -0.00018  -0.00018   2.10122
   R14        3.48226  -0.00007   0.00000  -0.00008  -0.00009   3.48218
   R15        2.08923  -0.00004   0.00000  -0.00011  -0.00011   2.08912
   R16        2.09514   0.00000   0.00000   0.00000   0.00000   2.09514
   R17        2.70734   0.00000   0.00000  -0.00022  -0.00022   2.70712
   R18        2.09146  -0.00001   0.00000  -0.00003  -0.00003   2.09143
   R19        2.76638  -0.00006   0.00000  -0.00007  -0.00007   2.76631
   R20        3.17775  -0.00007   0.00000  -0.00047  -0.00047   3.17728
    A1        2.09869   0.00001   0.00000  -0.00001  -0.00001   2.09868
    A2        2.09185   0.00000   0.00000   0.00002   0.00002   2.09186
    A3        2.09265  -0.00001   0.00000   0.00000   0.00000   2.09264
    A4        2.09760  -0.00002   0.00000   0.00035   0.00035   2.09795
    A5        2.09095   0.00000   0.00000  -0.00024  -0.00024   2.09071
    A6        2.09462   0.00002   0.00000  -0.00014  -0.00014   2.09448
    A7        2.08426  -0.00003   0.00000  -0.00055  -0.00055   2.08371
    A8        2.10592   0.00020   0.00000  -0.00078  -0.00077   2.10515
    A9        2.09285  -0.00018   0.00000   0.00122   0.00119   2.09404
   A10        2.09510   0.00003   0.00000   0.00008   0.00009   2.09518
   A11        2.07303   0.00003   0.00000   0.00132   0.00129   2.07432
   A12        2.11421  -0.00007   0.00000  -0.00132  -0.00130   2.11290
   A13        2.09698   0.00001   0.00000   0.00027   0.00026   2.09724
   A14        2.09428  -0.00001   0.00000  -0.00017  -0.00017   2.09411
   A15        2.09192   0.00000   0.00000  -0.00009  -0.00009   2.09184
   A16        2.09366   0.00000   0.00000  -0.00019  -0.00019   2.09347
   A17        2.09493   0.00001   0.00000   0.00011   0.00011   2.09504
   A18        2.09459   0.00000   0.00000   0.00007   0.00007   2.09466
   A19        1.92628  -0.00018   0.00000  -0.00176  -0.00175   1.92453
   A20        1.96011   0.00022   0.00000   0.00346   0.00342   1.96353
   A21        1.96748   0.00006   0.00000   0.00021   0.00021   1.96769
   A22        1.90115  -0.00014   0.00000  -0.00203  -0.00203   1.89912
   A23        1.82643   0.00003   0.00000  -0.00058  -0.00059   1.82584
   A24        1.87644  -0.00001   0.00000   0.00037   0.00039   1.87683
   A25        1.97920  -0.00004   0.00000  -0.00041  -0.00040   1.97880
   A26        1.90005   0.00028   0.00000   0.00156   0.00154   1.90159
   A27        1.96488  -0.00007   0.00000  -0.00022  -0.00022   1.96467
   A28        1.79412  -0.00001   0.00000   0.00042   0.00043   1.79455
   A29        1.90251   0.00002   0.00000  -0.00021  -0.00021   1.90230
   A30        1.91501  -0.00017   0.00000  -0.00112  -0.00112   1.91389
   A31        1.80586  -0.00020   0.00000  -0.00148  -0.00147   1.80439
   A32        1.77244   0.00009   0.00000   0.00074   0.00068   1.77313
   A33        1.91551  -0.00007   0.00000  -0.00208  -0.00207   1.91344
   A34        2.09279  -0.00024   0.00000  -0.00130  -0.00134   2.09145
    D1       -0.00297  -0.00004   0.00000  -0.00174  -0.00174  -0.00471
    D2       -3.13815   0.00005   0.00000   0.00294   0.00294  -3.13521
    D3        3.13812  -0.00006   0.00000  -0.00286  -0.00286   3.13526
    D4        0.00294   0.00003   0.00000   0.00182   0.00182   0.00476
    D5       -0.00741  -0.00004   0.00000  -0.00188  -0.00188  -0.00929
    D6        3.13960  -0.00001   0.00000  -0.00067  -0.00067   3.13893
    D7        3.13469  -0.00002   0.00000  -0.00076  -0.00076   3.13393
    D8       -0.00149   0.00001   0.00000   0.00045   0.00045  -0.00104
    D9        0.01071   0.00009   0.00000   0.00423   0.00423   0.01494
   D10       -3.11206   0.00019   0.00000   0.01086   0.01086  -3.10120
   D11       -3.13731   0.00000   0.00000  -0.00046  -0.00046  -3.13777
   D12        0.02311   0.00010   0.00000   0.00617   0.00616   0.02927
   D13       -0.00817  -0.00006   0.00000  -0.00314  -0.00314  -0.01131
   D14        3.08951  -0.00002   0.00000  -0.00115  -0.00115   3.08836
   D15        3.11474  -0.00016   0.00000  -0.00974  -0.00974   3.10499
   D16       -0.07077  -0.00012   0.00000  -0.00775  -0.00775  -0.07852
   D17        1.76951  -0.00009   0.00000  -0.01166  -0.01165   1.75786
   D18       -2.38864  -0.00024   0.00000  -0.01313  -0.01314  -2.40178
   D19       -0.26574  -0.00004   0.00000  -0.00991  -0.00991  -0.27566
   D20       -1.35316   0.00001   0.00000  -0.00497  -0.00497  -1.35813
   D21        0.77188  -0.00014   0.00000  -0.00644  -0.00646   0.76542
   D22        2.89477   0.00006   0.00000  -0.00322  -0.00323   2.89154
   D23       -0.00212  -0.00002   0.00000  -0.00045  -0.00045  -0.00256
   D24        3.13592   0.00003   0.00000   0.00171   0.00170   3.13763
   D25       -3.09874  -0.00006   0.00000  -0.00256  -0.00255  -3.10129
   D26        0.03930  -0.00001   0.00000  -0.00040  -0.00040   0.03890
   D27       -2.86098  -0.00001   0.00000   0.00817   0.00817  -2.85281
   D28       -0.87553   0.00012   0.00000   0.00943   0.00944  -0.86609
   D29        1.25187   0.00005   0.00000   0.00896   0.00896   1.26083
   D30        0.23620   0.00003   0.00000   0.01022   0.01022   0.24643
   D31        2.22166   0.00016   0.00000   0.01148   0.01149   2.23314
   D32       -1.93413   0.00009   0.00000   0.01101   0.01101  -1.92313
   D33        0.00993   0.00007   0.00000   0.00297   0.00297   0.01291
   D34       -3.13707   0.00004   0.00000   0.00176   0.00176  -3.13531
   D35       -3.12811   0.00002   0.00000   0.00082   0.00082  -3.12729
   D36        0.00807  -0.00001   0.00000  -0.00039  -0.00039   0.00768
   D37       -2.51313   0.00031   0.00000   0.01953   0.01954  -2.49359
   D38       -0.52685   0.00021   0.00000   0.01705   0.01706  -0.50979
   D39       -0.37382   0.00013   0.00000   0.01817   0.01817  -0.35565
   D40        1.61246   0.00003   0.00000   0.01570   0.01569   1.62815
   D41        1.59598   0.00009   0.00000   0.01670   0.01670   1.61268
   D42       -2.70093  -0.00001   0.00000   0.01422   0.01422  -2.68671
   D43        1.06432  -0.00002   0.00000   0.00587   0.00585   1.07017
   D44       -3.11523   0.00005   0.00000   0.00634   0.00633  -3.10889
   D45       -1.09308   0.00000   0.00000   0.00584   0.00583  -1.08724
   D46       -0.36404  -0.00012   0.00000  -0.01664  -0.01664  -0.38068
   D47        1.53881  -0.00032   0.00000  -0.01867  -0.01868   1.52013
         Item               Value     Threshold  Converged?
 Maximum Force            0.000321     0.000015     NO 
 RMS     Force            0.000099     0.000010     NO 
 Maximum Displacement     0.066133     0.000060     NO 
 RMS     Displacement     0.010646     0.000040     NO 
 Predicted change in Energy=-2.082579D-05
 GradGradGradGradGradGradGradGradGradGradGradGradGradGradGradGradGradGrad

                          Input orientation:                          
 ---------------------------------------------------------------------
 Center     Atomic      Atomic             Coordinates (Angstroms)
 Number     Number       Type             X           Y           Z
 ---------------------------------------------------------------------
      1          6           0       -2.540701   -1.870054   -0.426548
      2          6           0       -1.151470   -1.976193   -0.339482
      3          6           0       -0.353088   -0.820580   -0.340110
      4          6           0       -0.968631    0.445225   -0.411047
      5          6           0       -2.362870    0.543087   -0.493752
      6          6           0       -3.147667   -0.611944   -0.509337
      7          1           0        1.550234   -0.776758   -1.316540
      8          1           0       -3.154068   -2.770244   -0.431552
      9          1           0       -0.686864   -2.958623   -0.281441
     10          6           0        1.125699   -0.924239   -0.299495
     11          6           0       -0.108087    1.674723   -0.341057
     12          1           0       -2.837866    1.522205   -0.544808
     13          1           0       -4.231041   -0.533221   -0.579600
     14          1           0       -0.677878    2.598093   -0.113151
     15         16           0        1.887406    0.301907    0.845874
     16          8           0        3.115961    0.694657    0.153548
     17          8           0        0.775204    1.561162    0.781035
     18          1           0        0.481275    1.833756   -1.264216
     19          1           0        1.475536   -1.927464    0.005986
 ---------------------------------------------------------------------
                    Distance matrix (angstroms):
                    1          2          3          4          5
     1  C    0.000000
     2  C    1.395997   0.000000
     3  C    2.427863   1.404584   0.000000
     4  C    2.798600   2.429366   1.409321   0.000000
     5  C    2.420618   2.799653   2.433601   1.400114   0.000000
     6  C    1.399321   2.423804   2.807460   2.423935   1.396512
     7  H    4.327024   3.113277   2.139620   2.942422   4.210862
     8  H    1.089305   2.156245   3.413948   3.887904   3.407055
     9  H    2.154704   1.088300   2.164736   3.417949   3.887936
    10  C    3.788562   2.508726   1.482972   2.504815   3.789577
    11  C    4.300042   3.797082   2.507301   1.502364   2.527441
    12  H    3.407303   3.889072   3.421208   2.161439   1.089450
    13  H    2.160508   3.409337   3.895953   3.410144   2.157747
    14  H    4.851048   4.604303   3.441558   2.192743   2.684605
    15  S    5.093585   3.978640   2.772426   3.123674   4.462915
    16  O    6.237955   5.058407   3.817583   4.130966   5.519018
    17  O    4.922066   4.180971   2.864037   2.389003   3.536816
    18  H    4.853065   4.246964   2.931831   2.181318   3.216925
    19  H    4.039869   2.650073   2.165374   3.431840   4.592028
                    6          7          8          9         10
     6  C    0.000000
     7  H    4.769592   0.000000
     8  H    2.159710   5.185330   0.000000
     9  H    3.407989   3.291895   2.478934   0.000000
    10  C    4.289897   1.111918   4.662787   2.724781   0.000000
    11  C    3.807388   3.116305   5.389240   4.669736   2.877249
    12  H    2.156810   5.013605   4.305569   4.977348   4.664238
    13  H    1.088501   5.833141   2.487179   4.304958   5.378292
    14  H    4.069540   4.219272   5.920468   5.559272   3.961621
    15  S    5.293739   2.439926   6.040396   4.304505   1.842688
    16  O    6.432702   2.603406   7.187569   5.291234   2.605228
    17  O    4.666516   3.235177   5.972489   4.867747   2.732694
    18  H    4.440778   2.821382   5.925020   5.029642   2.992074
    19  H    4.834269   1.754644   4.725987   2.412857   1.105515
                   11         12         13         14         15
    11  C    0.000000
    12  H    2.741618   0.000000
    13  H    4.683019   2.483329   0.000000
    14  H    1.108700   2.451410   4.758957   0.000000
    15  S    2.697299   5.074576   6.337571   3.573917   0.000000
    16  O    3.405826   6.051495   7.484893   4.252930   1.463870
    17  O    1.432547   3.848851   5.594664   1.996558   1.681345
    18  H    1.106735   3.410471   5.317632   1.803552   2.962473
    19  H    3.950196   5.550588   5.903545   5.013188   2.417673
                   16         17         18         19
    16  O    0.000000
    17  O    2.573658   0.000000
    18  H    3.201433   2.084168   0.000000
    19  H    3.096496   3.641659   4.092523   0.000000
 Symmetry turned off by external request.
 Stoichiometry    C8H8O2S
 Framework group  C1[X(C8H8O2S)]
 Deg. of freedom    51
 Full point group                 C1      NOp   1
 Rotational constants (GHZ):           2.4215267           0.6898791           0.5680296
 Standard basis: VSTO-6G (5D, 7F)
    57 basis functions,   348 primitive gaussians,    58 cartesian basis functions
    29 alpha electrons       29 beta electrons
       nuclear repulsion energy       341.0682953416 Hartrees.
 Integral buffers will be    131072 words long.
 Regular integral format.
 Two-electron integral symmetry is turned off.
 Do NDO integrals.
 One-electron integrals computed using PRISM.
 NBasis=    57 RedAO= F EigKep=  0.00D+00  NBF=    57
 NBsUse=    57 1.00D-04 EigRej=  0.00D+00 NBFU=    57
 Initial guess from the checkpoint file:  "C:\Users\al6323\OneDrive - Imperial College London\Desktop\TSR20251115\Exercise 3\DA reaction\TS_exo_Berny_IRC_product.chk"
 B after Tr=     0.003847    0.002289   -0.005425
         Rot=    0.999999   -0.000258   -0.001542   -0.000364 Ang=  -0.18 deg.
 Keep J ints in memory in canonical form, NReq=1859402.
 Overlap will be assumed to be unity.
 Requested convergence on RMS density matrix=1.00D-08 within  32 cycles.
 Requested convergence on MAX density matrix=1.00D-06.
 Requested convergence on             energy=1.00D-06.
 No special actions if energy rises.
 SCF Done:  E(RPM6) = -0.789054289664E-01 A.U. after   14 cycles
            NFock= 13  Conv=0.88D-08     -V/T= 0.9993
 QCSCF skips out because SCF is already converged.
 Calling FoFJK, ICntrl=      2127 FMM=F ISym2X=0 I1Cent= 0 IOpClX= 0 NMat=1 NMatS=1 NMatT=0.
 -------------------------------------------------------------------
 Center     Atomic                   Forces (Hartrees/Bohr)
 Number     Number              X              Y              Z
 -------------------------------------------------------------------
      1        6           0.000002468   -0.000026843   -0.000020033
      2        6           0.000043782    0.000007279   -0.000249065
      3        6           0.000006038    0.000094541   -0.000118027
      4        6           0.000157186   -0.000159714    0.000173322
      5        6           0.000012864    0.000057330   -0.000167423
      6        6          -0.000057723   -0.000007309    0.000066211
      7        1           0.000017347   -0.000014626   -0.000129386
      8        1           0.000003985   -0.000002005    0.000025172
      9        1          -0.000006605   -0.000001414    0.000120860
     10        6          -0.000130066   -0.000005071    0.000359819
     11        6           0.000080010    0.000044609   -0.000026945
     12        1          -0.000009076    0.000010286    0.000029261
     13        1           0.000006034   -0.000000608   -0.000040429
     14        1           0.000006306    0.000002785    0.000050450
     15       16          -0.000012263    0.000041199   -0.000131748
     16        8           0.000092529    0.000081700   -0.000228933
     17        8          -0.000113754   -0.000183353    0.000279562
     18        1          -0.000016910    0.000019795   -0.000103654
     19        1          -0.000082153    0.000041417    0.000110986
 -------------------------------------------------------------------
 Cartesian Forces:  Max     0.000359819 RMS     0.000106352

 GradGradGradGradGradGradGradGradGradGradGradGradGradGradGradGradGradGrad
 Berny optimization.
 Using GEDIIS/GDIIS optimizer.
 FormGI is forming the generalized inverse of G from B-inverse, IUseBI=4.
 Internal  Forces:  Max     0.000207847 RMS     0.000068800
 Search for a local minimum.
 Step number   2 out of a maximum of  111
 All quantities printed in internal units (Hartrees-Bohrs-Radians)
 Mixed Optimization -- En-DIIS/RFO-DIIS
 Swapping is turned off.
 Update second derivatives using D2CorX and points    1    2
 DE= -3.36D-05 DEPred=-2.08D-05 R= 1.61D+00
 TightC=F SS=  1.41D+00  RLast= 6.30D-02 DXNew= 5.0454D-01 1.8905D-01
 Trust test= 1.61D+00 RLast= 6.30D-02 DXMaxT set to 3.00D-01
 ITU=  1  0
     Eigenvalues ---    0.00237   0.01325   0.01462   0.01663   0.02037
     Eigenvalues ---    0.02098   0.02103   0.02113   0.02115   0.02125
     Eigenvalues ---    0.02461   0.04182   0.06437   0.06723   0.07011
     Eigenvalues ---    0.07517   0.10064   0.11100   0.11508   0.11829
     Eigenvalues ---    0.14871   0.15999   0.16000   0.16000   0.16002
     Eigenvalues ---    0.19204   0.22000   0.22203   0.22792   0.23174
     Eigenvalues ---    0.23669   0.24661   0.31269   0.32505   0.32738
     Eigenvalues ---    0.32954   0.33070   0.33511   0.34878   0.34892
     Eigenvalues ---    0.34984   0.35010   0.36487   0.39017   0.40415
     Eigenvalues ---    0.41667   0.44339   0.45370   0.45860   0.46142
     Eigenvalues ---    0.90469
 En-DIIS/RFO-DIIS/Sim-DIIS IScMMF=       -3 using points:     2    1
 RFO step:  Lambda=-7.48565084D-05.
 DidBck=F Rises=F RFO-DIIS coefs:    3.00000   -2.00000
 Iteration  1 RMS(Cart)=  0.02647506 RMS(Int)=  0.00045373
 Iteration  2 RMS(Cart)=  0.00053391 RMS(Int)=  0.00011165
 Iteration  3 RMS(Cart)=  0.00000010 RMS(Int)=  0.00011165
 Variable       Old X    -DE/DX   Delta X   Delta X   Delta X     New X
                                 (Linear)    (Quad)   (Total)
    R1        2.63805   0.00001  -0.00004  -0.00003  -0.00005   2.63801
    R2        2.64433   0.00003  -0.00033   0.00011  -0.00017   2.64416
    R3        2.05849   0.00000  -0.00003   0.00001  -0.00002   2.05847
    R4        2.65428  -0.00002   0.00034  -0.00015   0.00016   2.65444
    R5        2.05659   0.00000  -0.00004   0.00006   0.00002   2.05661
    R6        2.66323  -0.00015   0.00057  -0.00052   0.00003   2.66327
    R7        2.80241  -0.00016   0.00099  -0.00077   0.00022   2.80263
    R8        2.64583   0.00004  -0.00018   0.00045   0.00025   2.64608
    R9        2.83906   0.00003  -0.00037  -0.00007  -0.00041   2.83865
   R10        2.63903   0.00005  -0.00038   0.00035  -0.00001   2.63902
   R11        2.05876   0.00001  -0.00004   0.00011   0.00008   2.05884
   R12        2.05697   0.00000  -0.00010   0.00004  -0.00007   2.05690
   R13        2.10122   0.00012  -0.00036   0.00123   0.00086   2.10208
   R14        3.48218  -0.00013  -0.00018  -0.00080  -0.00104   3.48113
   R15        2.08912  -0.00003  -0.00022  -0.00013  -0.00035   2.08877
   R16        2.09514   0.00001  -0.00001   0.00008   0.00007   2.09521
   R17        2.70712   0.00006  -0.00043   0.00005  -0.00033   2.70679
   R18        2.09143   0.00008  -0.00006   0.00068   0.00062   2.09205
   R19        2.76631   0.00021  -0.00014   0.00070   0.00056   2.76687
   R20        3.17728  -0.00008  -0.00094  -0.00073  -0.00168   3.17560
    A1        2.09868  -0.00001  -0.00003  -0.00020  -0.00022   2.09846
    A2        2.09186   0.00000   0.00003  -0.00002   0.00001   2.09187
    A3        2.09264   0.00001  -0.00001   0.00022   0.00021   2.09285
    A4        2.09795  -0.00001   0.00069   0.00037   0.00100   2.09895
    A5        2.09071   0.00000  -0.00049  -0.00011  -0.00057   2.09013
    A6        2.09448   0.00001  -0.00028  -0.00015  -0.00041   2.09407
    A7        2.08371   0.00005  -0.00110   0.00010  -0.00098   2.08273
    A8        2.10515   0.00003  -0.00154  -0.00213  -0.00349   2.10167
    A9        2.09404  -0.00009   0.00238   0.00215   0.00426   2.09830
   A10        2.09518   0.00000   0.00017  -0.00022  -0.00002   2.09516
   A11        2.07432   0.00005   0.00259   0.00141   0.00378   2.07810
   A12        2.11290  -0.00005  -0.00261  -0.00127  -0.00369   2.10921
   A13        2.09724  -0.00001   0.00052   0.00021   0.00067   2.09791
   A14        2.09411   0.00001  -0.00033  -0.00002  -0.00033   2.09378
   A15        2.09184   0.00000  -0.00018  -0.00020  -0.00035   2.09149
   A16        2.09347  -0.00002  -0.00038  -0.00020  -0.00058   2.09290
   A17        2.09504   0.00001   0.00023   0.00010   0.00032   2.09536
   A18        2.09466   0.00001   0.00014   0.00011   0.00025   2.09491
   A19        1.92453  -0.00015  -0.00349  -0.00109  -0.00447   1.92006
   A20        1.96353   0.00018   0.00684   0.00360   0.01004   1.97356
   A21        1.96769  -0.00001   0.00043  -0.00230  -0.00178   1.96591
   A22        1.89912  -0.00006  -0.00405   0.00004  -0.00395   1.89517
   A23        1.82584   0.00006  -0.00117   0.00098  -0.00024   1.82560
   A24        1.87683  -0.00004   0.00078  -0.00138  -0.00043   1.87640
   A25        1.97880  -0.00001  -0.00080  -0.00070  -0.00139   1.97741
   A26        1.90159   0.00008   0.00308  -0.00103   0.00185   1.90344
   A27        1.96467  -0.00004  -0.00043   0.00051   0.00005   1.96472
   A28        1.79455  -0.00002   0.00086  -0.00135  -0.00041   1.79414
   A29        1.90230   0.00001  -0.00042   0.00009  -0.00035   1.90195
   A30        1.91389   0.00000  -0.00224   0.00245   0.00027   1.91416
   A31        1.80439  -0.00007  -0.00295   0.00058  -0.00226   1.80213
   A32        1.77313   0.00003   0.00137   0.00091   0.00163   1.77476
   A33        1.91344   0.00002  -0.00414   0.00074  -0.00328   1.91016
   A34        2.09145  -0.00015  -0.00269  -0.00112  -0.00422   2.08723
    D1       -0.00471   0.00001  -0.00349   0.00347  -0.00003  -0.00475
    D2       -3.13521  -0.00005   0.00588  -0.00811  -0.00224  -3.13744
    D3        3.13526   0.00002  -0.00573   0.00582   0.00009   3.13534
    D4        0.00476  -0.00003   0.00364  -0.00575  -0.00211   0.00265
    D5       -0.00929  -0.00001  -0.00377  -0.00004  -0.00382  -0.01311
    D6        3.13893  -0.00002  -0.00134  -0.00165  -0.00298   3.13595
    D7        3.13393  -0.00002  -0.00153  -0.00240  -0.00394   3.12998
    D8       -0.00104  -0.00003   0.00090  -0.00401  -0.00310  -0.00414
    D9        0.01494   0.00001   0.00847  -0.00274   0.00575   0.02070
   D10       -3.10120   0.00002   0.02172  -0.00777   0.01392  -3.08728
   D11       -3.13777   0.00007  -0.00092   0.00886   0.00796  -3.12981
   D12        0.02927   0.00007   0.01233   0.00383   0.01612   0.04539
   D13       -0.01131  -0.00003  -0.00628  -0.00137  -0.00767  -0.01898
   D14        3.08836  -0.00002  -0.00230  -0.00360  -0.00593   3.08243
   D15        3.10499  -0.00003  -0.01949   0.00357  -0.01593   3.08906
   D16       -0.07852  -0.00002  -0.01551   0.00134  -0.01419  -0.09272
   D17        1.75786  -0.00005  -0.02331  -0.00858  -0.03187   1.72599
   D18       -2.40178  -0.00011  -0.02628  -0.00684  -0.03323  -2.43501
   D19       -0.27566  -0.00003  -0.01983  -0.00767  -0.02757  -0.30323
   D20       -1.35813  -0.00005  -0.00994  -0.01362  -0.02355  -1.38169
   D21        0.76542  -0.00011  -0.01291  -0.01187  -0.02492   0.74050
   D22        2.89154  -0.00003  -0.00646  -0.01270  -0.01926   2.87228
   D23       -0.00256   0.00003  -0.00089   0.00479   0.00390   0.00133
   D24        3.13763   0.00000   0.00341  -0.00172   0.00168   3.13931
   D25       -3.10129   0.00001  -0.00510   0.00700   0.00194  -3.09935
   D26        0.03890  -0.00001  -0.00080   0.00049  -0.00027   0.03863
   D27       -2.85281   0.00003   0.01635   0.00562   0.02200  -2.83081
   D28       -0.86609   0.00004   0.01887   0.00292   0.02186  -0.84423
   D29        1.26083   0.00007   0.01791   0.00564   0.02353   1.28436
   D30        0.24643   0.00005   0.02044   0.00339   0.02384   0.27027
   D31        2.23314   0.00006   0.02297   0.00069   0.02370   2.25684
   D32       -1.92313   0.00008   0.02201   0.00342   0.02538  -1.89775
   D33        0.01291  -0.00001   0.00595  -0.00408   0.00188   0.01478
   D34       -3.13531   0.00000   0.00352  -0.00248   0.00104  -3.13427
   D35       -3.12729   0.00002   0.00165   0.00242   0.00409  -3.12320
   D36        0.00768   0.00002  -0.00078   0.00402   0.00325   0.01093
   D37       -2.49359   0.00016   0.03907   0.01604   0.05520  -2.43840
   D38       -0.50979   0.00017   0.03411   0.01735   0.05148  -0.45831
   D39       -0.35565   0.00004   0.03634   0.01708   0.05339  -0.30226
   D40        1.62815   0.00006   0.03138   0.01839   0.04968   1.67783
   D41        1.61268   0.00007   0.03340   0.01755   0.05099   1.66367
   D42       -2.68671   0.00009   0.02844   0.01886   0.04728  -2.63943
   D43        1.07017   0.00002   0.01170   0.00660   0.01814   1.08831
   D44       -3.10889   0.00002   0.01267   0.00459   0.01717  -3.09172
   D45       -1.08724   0.00002   0.01167   0.00505   0.01668  -1.07056
   D46       -0.38068  -0.00015  -0.03328  -0.01570  -0.04892  -0.42960
   D47        1.52013  -0.00020  -0.03735  -0.01440  -0.05182   1.46831
         Item               Value     Threshold  Converged?
 Maximum Force            0.000208     0.000015     NO 
 RMS     Force            0.000069     0.000010     NO 
 Maximum Displacement     0.163737     0.000060     NO 
 RMS     Displacement     0.026450     0.000040     NO 
 Predicted change in Energy=-3.876196D-05
 GradGradGradGradGradGradGradGradGradGradGradGradGradGradGradGradGradGrad

                          Input orientation:                          
 ---------------------------------------------------------------------
 Center     Atomic      Atomic             Coordinates (Angstroms)
 Number     Number       Type             X           Y           Z
 ---------------------------------------------------------------------
      1          6           0       -2.540864   -1.868859   -0.434769
      2          6           0       -1.152857   -1.975985   -0.331316
      3          6           0       -0.352238   -0.821827   -0.326085
      4          6           0       -0.966116    0.444583   -0.400903
      5          6           0       -2.359169    0.543495   -0.502410
      6          6           0       -3.145343   -0.610408   -0.528320
      7          1           0        1.544896   -0.815419   -1.309387
      8          1           0       -3.154985   -2.768489   -0.444065
      9          1           0       -0.690584   -2.958859   -0.262888
     10          6           0        1.126076   -0.933652   -0.285674
     11          6           0       -0.110490    1.676405   -0.317465
     12          1           0       -2.832528    1.523202   -0.558019
     13          1           0       -4.227467   -0.530449   -0.614168
     14          1           0       -0.684135    2.592992   -0.072307
     15         16           0        1.914512    0.312175    0.818748
     16          8           0        3.101539    0.723847    0.066902
     17          8           0        0.780670    1.552280    0.797039
     18          1           0        0.471756    1.852781   -1.242384
     19          1           0        1.468409   -1.932318    0.041776
 ---------------------------------------------------------------------
                    Distance matrix (angstroms):
                    1          2          3          4          5
     1  C    0.000000
     2  C    1.395973   0.000000
     3  C    2.428615   1.404671   0.000000
     4  C    2.798748   2.428757   1.409339   0.000000
     5  C    2.420132   2.798613   2.433714   1.400244   0.000000
     6  C    1.399230   2.423553   2.808386   2.424514   1.396507
     7  H    4.309075   3.095385   2.136830   2.952648   4.211838
     8  H    1.089296   2.156222   3.414500   3.888038   3.406753
     9  H    2.154339   1.088310   2.164573   3.417364   3.886904
    10  C    3.787254   2.506407   1.483088   2.508003   3.791553
    11  C    4.299927   3.798246   2.509916   1.502146   2.524727
    12  H    3.406807   3.888058   3.421227   2.161388   1.089490
    13  H    2.160591   3.409224   3.896832   3.410657   2.157866
    14  H    4.846332   4.600254   3.440283   2.191609   2.681635
    15  S    5.116502   3.995883   2.781143   3.130990   4.479210
    16  O    6.229808   5.054459   3.804224   4.103979   5.493266
    17  O    4.924848   4.178560   2.860292   2.390255   3.544687
    18  H    4.855792   4.257799   2.944842   2.181418   3.205608
    19  H    4.037994   2.648045   2.164086   3.431113   4.590876
                    6          7          8          9         10
     6  C    0.000000
     7  H    4.759247   0.000000
     8  H    2.159747   5.162572   0.000000
     9  H    3.407567   3.269077   2.478374   0.000000
    10  C    4.290499   1.112375   4.660386   2.720705   0.000000
    11  C    3.805825   3.151730   5.389069   4.671740   2.888340
    12  H    2.156623   5.019516   4.305296   4.976333   4.666996
    13  H    1.088465   5.821058   2.487564   4.304662   5.378746
    14  H    4.065373   4.256315   5.915132   5.555124   3.969838
    15  S    5.316755   2.436605   6.065063   4.319274   1.842136
    16  O    6.415455   2.585856   7.183425   5.296346   2.602704
    17  O    4.674117   3.259919   5.974845   4.861934   2.733392
    18  H    4.434026   2.876701   5.928465   5.046020   3.017886
    19  H    4.833132   1.754695   4.723452   2.409950   1.105328
                   11         12         13         14         15
    11  C    0.000000
    12  H    2.736938   0.000000
    13  H    4.680571   2.483242   0.000000
    14  H    1.108739   2.448665   4.754440   0.000000
    15  S    2.693091   5.088857   6.362954   3.570585   0.000000
    16  O    3.372274   6.020187   7.466689   4.224264   1.464165
    17  O    1.432373   3.859045   5.604526   1.996121   1.680455
    18  H    1.107065   3.390467   5.306330   1.803629   2.950132
    19  H    3.955358   5.549634   5.902416   5.012474   2.416701
                   16         17         18         19
    16  O    0.000000
    17  O    2.570181   0.000000
    18  H    3.147138   2.084459   0.000000
    19  H    3.118166   3.631230   4.119388   0.000000
 Symmetry turned off by external request.
 Stoichiometry    C8H8O2S
 Framework group  C1[X(C8H8O2S)]
 Deg. of freedom    51
 Full point group                 C1      NOp   1
 Rotational constants (GHZ):           2.4254980           0.6888906           0.5675398
 Standard basis: VSTO-6G (5D, 7F)
    57 basis functions,   348 primitive gaussians,    58 cartesian basis functions
    29 alpha electrons       29 beta electrons
       nuclear repulsion energy       341.0974658776 Hartrees.
 Integral buffers will be    131072 words long.
 Regular integral format.
 Two-electron integral symmetry is turned off.
 Do NDO integrals.
 One-electron integrals computed using PRISM.
 NBasis=    57 RedAO= F EigKep=  0.00D+00  NBF=    57
 NBsUse=    57 1.00D-04 EigRej=  0.00D+00 NBFU=    57
 Initial guess from the checkpoint file:  "C:\Users\al6323\OneDrive - Imperial College London\Desktop\TSR20251115\Exercise 3\DA reaction\TS_exo_Berny_IRC_product.chk"
 B after Tr=     0.008344    0.005747   -0.016267
         Rot=    0.999992   -0.001041   -0.003740   -0.001043 Ang=  -0.46 deg.
 Keep J ints in memory in canonical form, NReq=1859402.
 Overlap will be assumed to be unity.
 Requested convergence on RMS density matrix=1.00D-08 within  32 cycles.
 Requested convergence on MAX density matrix=1.00D-06.
 Requested convergence on             energy=1.00D-06.
 No special actions if energy rises.
 SCF Done:  E(RPM6) = -0.789512100117E-01 A.U. after   15 cycles
            NFock= 14  Conv=0.63D-08     -V/T= 0.9993
 QCSCF skips out because SCF is already converged.
 Calling FoFJK, ICntrl=      2127 FMM=F ISym2X=0 I1Cent= 0 IOpClX= 0 NMat=1 NMatS=1 NMatT=0.
 -------------------------------------------------------------------
 Center     Atomic                   Forces (Hartrees/Bohr)
 Number     Number              X              Y              Z
 -------------------------------------------------------------------
      1        6           0.000024188   -0.000051300    0.000026435
      2        6          -0.000042005   -0.000133386   -0.000051641
      3        6          -0.000094694    0.000427164   -0.000303501
      4        6           0.000207441   -0.000318529    0.000172200
      5        6          -0.000128536   -0.000011573    0.000122121
      6        6           0.000001854    0.000054984    0.000082412
      7        1           0.000036941   -0.000012853   -0.000243282
      8        1           0.000008963    0.000004526   -0.000009718
      9        1           0.000000218   -0.000028946   -0.000039116
     10        6           0.000027856    0.000106926    0.000302797
     11        6           0.000090297    0.000234963   -0.000295901
     12        1          -0.000010867   -0.000007610   -0.000045070
     13        1           0.000010304    0.000002299   -0.000028834
     14        1          -0.000017213    0.000067293    0.000019702
     15       16          -0.000383798   -0.000007058   -0.000042050
     16        8           0.000447492    0.000066713   -0.000194450
     17        8          -0.000106836   -0.000324723    0.000302271
     18        1          -0.000030664   -0.000020014   -0.000032869
     19        1          -0.000040940   -0.000048875    0.000258495
 -------------------------------------------------------------------
 Cartesian Forces:  Max     0.000447492 RMS     0.000163559

 GradGradGradGradGradGradGradGradGradGradGradGradGradGradGradGradGradGrad
 Berny optimization.
 Using GEDIIS/GDIIS optimizer.
 FormGI is forming the generalized inverse of G from B-inverse, IUseBI=4.
 Internal  Forces:  Max     0.000481397 RMS     0.000086742
 Search for a local minimum.
 Step number   3 out of a maximum of  111
 All quantities printed in internal units (Hartrees-Bohrs-Radians)
 Mixed Optimization -- En-DIIS/RFO-DIIS
 Swapping is turned off.
 Update second derivatives using D2CorX and points    1    2    3
 DE= -4.58D-05 DEPred=-3.88D-05 R= 1.18D+00
 TightC=F SS=  1.41D+00  RLast= 1.76D-01 DXNew= 5.0454D-01 5.2828D-01
 Trust test= 1.18D+00 RLast= 1.76D-01 DXMaxT set to 5.05D-01
 ITU=  1  1  0
     Eigenvalues ---    0.00168   0.01366   0.01520   0.01666   0.02066
     Eigenvalues ---    0.02100   0.02110   0.02114   0.02119   0.02129
     Eigenvalues ---    0.02466   0.04140   0.06422   0.06694   0.07137
     Eigenvalues ---    0.07730   0.10149   0.11172   0.11522   0.11866
     Eigenvalues ---    0.14895   0.15999   0.16000   0.16001   0.16002
     Eigenvalues ---    0.19475   0.22000   0.22281   0.22854   0.23116
     Eigenvalues ---    0.23765   0.24752   0.31313   0.32579   0.32750
     Eigenvalues ---    0.32955   0.33104   0.33556   0.34878   0.34892
     Eigenvalues ---    0.34984   0.35011   0.36575   0.38992   0.40426
     Eigenvalues ---    0.41664   0.44434   0.45408   0.45869   0.46143
     Eigenvalues ---    0.90833
 En-DIIS/RFO-DIIS/Sim-DIIS IScMMF=       -3 using points:     3    2    1
 RFO step:  Lambda=-1.42738205D-05.
 DidBck=F Rises=F RFO-DIIS coefs:    1.38145   -0.30727   -0.07417
 Iteration  1 RMS(Cart)=  0.00992045 RMS(Int)=  0.00008375
 Iteration  2 RMS(Cart)=  0.00007752 RMS(Int)=  0.00005524
 Iteration  3 RMS(Cart)=  0.00000000 RMS(Int)=  0.00005524
 Variable       Old X    -DE/DX   Delta X   Delta X   Delta X     New X
                                 (Linear)    (Quad)   (Total)
    R1        2.63801  -0.00004  -0.00002  -0.00011  -0.00012   2.63789
    R2        2.64416   0.00003  -0.00008   0.00002  -0.00004   2.64412
    R3        2.05847  -0.00001  -0.00001  -0.00003  -0.00004   2.05843
    R4        2.65444   0.00014   0.00007   0.00044   0.00050   2.65495
    R5        2.05661   0.00002   0.00001   0.00007   0.00008   2.05668
    R6        2.66327  -0.00023   0.00003  -0.00035  -0.00033   2.66294
    R7        2.80263   0.00000   0.00012   0.00044   0.00055   2.80318
    R8        2.64608   0.00012   0.00009   0.00024   0.00032   2.64640
    R9        2.83865   0.00011  -0.00017   0.00029   0.00014   2.83879
   R10        2.63902  -0.00002  -0.00002  -0.00015  -0.00016   2.63886
   R11        2.05884   0.00000   0.00003  -0.00002   0.00000   2.05884
   R12        2.05690  -0.00001  -0.00003  -0.00003  -0.00006   2.05684
   R13        2.10208   0.00024   0.00032   0.00062   0.00093   2.10302
   R14        3.48113  -0.00016  -0.00040  -0.00043  -0.00087   3.48026
   R15        2.08877   0.00011  -0.00014   0.00043   0.00029   2.08905
   R16        2.09521   0.00007   0.00003   0.00023   0.00026   2.09548
   R17        2.70679   0.00016  -0.00014   0.00026   0.00015   2.70694
   R18        2.09205   0.00001   0.00024  -0.00012   0.00012   2.09217
   R19        2.76687   0.00048   0.00021   0.00049   0.00070   2.76757
   R20        3.17560  -0.00005  -0.00068  -0.00019  -0.00087   3.17473
    A1        2.09846  -0.00003  -0.00008  -0.00008  -0.00016   2.09830
    A2        2.09187   0.00001   0.00000   0.00004   0.00004   2.09191
    A3        2.09285   0.00002   0.00008   0.00005   0.00012   2.09297
    A4        2.09895  -0.00002   0.00041  -0.00002   0.00036   2.09931
    A5        2.09013   0.00000  -0.00024  -0.00010  -0.00033   2.08981
    A6        2.09407   0.00002  -0.00017   0.00011  -0.00004   2.09403
    A7        2.08273   0.00006  -0.00042   0.00008  -0.00032   2.08241
    A8        2.10167  -0.00014  -0.00139  -0.00078  -0.00207   2.09960
    A9        2.09830   0.00008   0.00171   0.00080   0.00238   2.10068
   A10        2.09516  -0.00003   0.00000  -0.00011  -0.00010   2.09507
   A11        2.07810   0.00003   0.00154   0.00004   0.00148   2.07957
   A12        2.10921   0.00000  -0.00150   0.00004  -0.00137   2.10784
   A13        2.09791   0.00001   0.00028   0.00006   0.00032   2.09823
   A14        2.09378   0.00001  -0.00014   0.00007  -0.00005   2.09373
   A15        2.09149  -0.00002  -0.00014  -0.00013  -0.00026   2.09123
   A16        2.09290   0.00001  -0.00023   0.00009  -0.00014   2.09276
   A17        2.09536   0.00000   0.00013  -0.00001   0.00012   2.09547
   A18        2.09491  -0.00001   0.00010  -0.00007   0.00003   2.09493
   A19        1.92006  -0.00003  -0.00183   0.00044  -0.00134   1.91873
   A20        1.97356   0.00001   0.00408   0.00011   0.00398   1.97754
   A21        1.96591  -0.00003  -0.00066  -0.00095  -0.00156   1.96434
   A22        1.89517   0.00006  -0.00166   0.00098  -0.00064   1.89453
   A23        1.82560   0.00008  -0.00014   0.00101   0.00085   1.82645
   A24        1.87640  -0.00007  -0.00014  -0.00148  -0.00152   1.87488
   A25        1.97741   0.00004  -0.00056   0.00040  -0.00011   1.97730
   A26        1.90344  -0.00019   0.00082  -0.00152  -0.00079   1.90264
   A27        1.96472   0.00003   0.00000   0.00017   0.00016   1.96488
   A28        1.79414   0.00004  -0.00012   0.00010   0.00002   1.79415
   A29        1.90195  -0.00001  -0.00015   0.00023   0.00007   1.90203
   A30        1.91416   0.00010   0.00002   0.00062   0.00066   1.91482
   A31        1.80213   0.00007  -0.00097   0.00087  -0.00005   1.80209
   A32        1.77476  -0.00003   0.00067   0.00029   0.00063   1.77539
   A33        1.91016   0.00013  -0.00141   0.00170   0.00035   1.91052
   A34        2.08723   0.00007  -0.00171   0.00025  -0.00166   2.08557
    D1       -0.00475   0.00000  -0.00014  -0.00072  -0.00087  -0.00562
    D2       -3.13744  -0.00002  -0.00064   0.00089   0.00025  -3.13719
    D3        3.13534   0.00000  -0.00018  -0.00118  -0.00136   3.13398
    D4        0.00265  -0.00001  -0.00067   0.00043  -0.00024   0.00241
    D5       -0.01311   0.00002  -0.00160   0.00120  -0.00040  -0.01351
    D6        3.13595  -0.00001  -0.00119  -0.00047  -0.00165   3.13429
    D7        3.12998   0.00002  -0.00156   0.00165   0.00009   3.13007
    D8       -0.00414  -0.00002  -0.00115  -0.00001  -0.00116  -0.00530
    D9        0.02070  -0.00003   0.00251  -0.00101   0.00151   0.02221
   D10       -3.08728  -0.00010   0.00611  -0.00469   0.00142  -3.08586
   D11       -3.12981  -0.00001   0.00300  -0.00263   0.00038  -3.12943
   D12        0.04539  -0.00009   0.00661  -0.00631   0.00029   0.04568
   D13       -0.01898   0.00004  -0.00316   0.00228  -0.00089  -0.01987
   D14        3.08243   0.00003  -0.00235   0.00172  -0.00065   3.08178
   D15        3.08906   0.00011  -0.00680   0.00592  -0.00088   3.08818
   D16       -0.09272   0.00010  -0.00599   0.00536  -0.00064  -0.09336
   D17        1.72599  -0.00002  -0.01302  -0.00188  -0.01488   1.71111
   D18       -2.43501   0.00003  -0.01365  -0.00023  -0.01394  -2.44894
   D19       -0.30323  -0.00008  -0.01125  -0.00284  -0.01412  -0.31735
   D20       -1.38169  -0.00009  -0.00935  -0.00558  -0.01493  -1.39661
   D21        0.74050  -0.00004  -0.00998  -0.00393  -0.01398   0.72652
   D22        2.87228  -0.00016  -0.00758  -0.00654  -0.01417   2.85812
   D23        0.00133  -0.00002   0.00145  -0.00182  -0.00037   0.00096
   D24        3.13931   0.00001   0.00077   0.00093   0.00170   3.14101
   D25       -3.09935  -0.00001   0.00055  -0.00125  -0.00068  -3.10003
   D26        0.03863   0.00002  -0.00013   0.00150   0.00139   0.04001
   D27       -2.83081   0.00004   0.00900  -0.00298   0.00604  -2.82477
   D28       -0.84423  -0.00001   0.00904  -0.00357   0.00550  -0.83873
   D29        1.28436   0.00000   0.00964  -0.00374   0.00589   1.29026
   D30        0.27027   0.00003   0.00985  -0.00354   0.00631   0.27658
   D31        2.25684  -0.00002   0.00989  -0.00414   0.00578   2.26262
   D32       -1.89775  -0.00001   0.01050  -0.00430   0.00617  -1.89158
   D33        0.01478  -0.00001   0.00094   0.00008   0.00103   0.01581
   D34       -3.13427   0.00003   0.00053   0.00175   0.00228  -3.13200
   D35       -3.12320  -0.00004   0.00162  -0.00267  -0.00104  -3.12424
   D36        0.01093  -0.00001   0.00121  -0.00100   0.00021   0.01114
   D37       -2.43840  -0.00008   0.02250  -0.00085   0.02169  -2.41671
   D38       -0.45831   0.00007   0.02090   0.00137   0.02228  -0.43603
   D39       -0.30226  -0.00008   0.02171   0.00048   0.02219  -0.28007
   D40        1.67783   0.00008   0.02011   0.00270   0.02277   1.70060
   D41        1.66367   0.00000   0.02069   0.00140   0.02211   1.68577
   D42       -2.63943   0.00016   0.01909   0.00361   0.02269  -2.61674
   D43        1.08831   0.00005   0.00735   0.00107   0.00835   1.09666
   D44       -3.09172   0.00002   0.00702   0.00088   0.00786  -3.08386
   D45       -1.07056   0.00007   0.00680   0.00146   0.00824  -1.06233
   D46       -0.42960  -0.00011  -0.01990  -0.00050  -0.02037  -0.44997
   D47        1.46831   0.00000  -0.02115   0.00117  -0.02002   1.44829
         Item               Value     Threshold  Converged?
 Maximum Force            0.000481     0.000015     NO 
 RMS     Force            0.000087     0.000010     NO 
 Maximum Displacement     0.059696     0.000060     NO 
 RMS     Displacement     0.009916     0.000040     NO 
 Predicted change in Energy=-7.179535D-06
 GradGradGradGradGradGradGradGradGradGradGradGradGradGradGradGradGradGrad

                          Input orientation:                          
 ---------------------------------------------------------------------
 Center     Atomic      Atomic             Coordinates (Angstroms)
 Number     Number       Type             X           Y           Z
 ---------------------------------------------------------------------
      1          6           0       -2.540654   -1.868420   -0.438621
      2          6           0       -1.153061   -1.975708   -0.330744
      3          6           0       -0.351769   -0.821708   -0.322736
      4          6           0       -0.965238    0.444711   -0.397463
      5          6           0       -2.358174    0.543785   -0.502691
      6          6           0       -3.144559   -0.609768   -0.532859
      7          1           0        1.545385   -0.834257   -1.305203
      8          1           0       -3.154767   -2.767990   -0.451300
      9          1           0       -0.691340   -2.958867   -0.262054
     10          6           0        1.126463   -0.937339   -0.279359
     11          6           0       -0.111453    1.677654   -0.310447
     12          1           0       -2.831208    1.523564   -0.559833
     13          1           0       -4.226214   -0.529431   -0.623722
     14          1           0       -0.686228    2.592182   -0.059679
     15         16           0        1.923843    0.317197    0.807879
     16          8           0        3.095919    0.734617    0.035312
     17          8           0        0.781728    1.549236    0.802052
     18          1           0        0.468468    1.859325   -1.235874
     19          1           0        1.463942   -1.933285    0.061646
 ---------------------------------------------------------------------
                    Distance matrix (angstroms):
                    1          2          3          4          5
     1  C    0.000000
     2  C    1.395910   0.000000
     3  C    2.429044   1.404937   0.000000
     4  C    2.798966   2.428613   1.409165   0.000000
     5  C    2.419946   2.798162   2.433643   1.400415   0.000000
     6  C    1.399209   2.423367   2.808691   2.424810   1.396422
     7  H    4.303042   3.087732   2.136490   2.960233   4.216729
     8  H    1.089276   2.156171   3.414871   3.888237   3.406620
     9  H    2.154116   1.088350   2.164819   3.417266   3.886492
    10  C    3.786822   2.505410   1.483381   2.509825   3.792928
    11  C    4.300243   3.799002   2.510919   1.502221   2.523960
    12  H    3.406563   3.887617   3.421131   2.161512   1.089492
    13  H    2.160617   3.409080   3.897094   3.410882   2.157780
    14  H    4.845561   4.599677   3.440306   2.191705   2.680969
    15  S    5.124687   4.002651   2.784565   3.133033   4.483816
    16  O    6.226666   5.053087   3.799592   4.094427   5.483885
    17  O    4.925227   4.177543   2.858555   2.389707   3.545740
    18  H    4.856595   4.260998   2.948653   2.181646   3.202829
    19  H    4.036244   2.646597   2.163367   3.430242   4.589436
                    6          7          8          9         10
     6  C    0.000000
     7  H    4.758412   0.000000
     8  H    2.159787   5.153630   0.000000
     9  H    3.407328   3.256542   2.478048   0.000000
    10  C    4.291059   1.112869   4.659375   2.718691   0.000000
    11  C    3.805456   3.169283   5.389374   4.672894   2.893370
    12  H    2.156391   5.026874   4.305103   4.975932   4.668819
    13  H    1.088434   5.819681   2.487745   4.304451   5.379231
    14  H    4.064452   4.274565   5.914262   5.554739   3.973868
    15  S    5.324053   2.436020   6.074224   4.326261   1.841675
    16  O    6.408881   2.581182   7.181652   5.298451   2.602540
    17  O    4.675362   3.271809   5.975393   4.860581   2.733377
    18  H    4.432225   2.901714   5.929202   5.050590   3.028071
    19  H    4.831503   1.755782   4.721475   2.408702   1.105479
                   11         12         13         14         15
    11  C    0.000000
    12  H    2.735508   0.000000
    13  H    4.679810   2.482924   0.000000
    14  H    1.108878   2.448069   4.753327   0.000000
    15  S    2.691454   5.092786   6.370986   3.569409   0.000000
    16  O    3.360968   6.008950   7.459610   4.214760   1.464535
[...]
 78,-0.1434874,0.0260908,-0.00261,-0.6671604,0.0323562,-0.0409142,-0.26
 61327,-0.7853948,0.2811431,0.2641756,0.2791197,0.3188474,-0.1249953,0.
 021962,0.4891129,-0.0081526,0.177275,0.1394979,-0.0879418,0.0029731,-0
 .1059178,0.2326951,-0.0154106,-0.0001661,-0.010741,0.1482567,0.3390507
 ,-0.0018577,0.0184083,-0.0217748,0.0830734,-0.0002216,0.0142638,0.0039
 988,0.1599266,0.0592753,-0.0167813,-0.047993,-0.0611627,0.2368371,0.00
 55225,-0.1082403,0.0730722,0.0932761,2.1255012,0.0326908,0.1742604,0.1
 321728,1.2756311,0.2063262,-0.324069,-0.0816251,1.2337174,-1.1725741,-
 0.1124442,-0.2436914,-0.2528612,-0.6130014,-0.0783398,0.6494403,0.1815
 953,-0.645735,-1.0140005,0.1080395,-0.0320427,0.1078828,-0.5762105,-0.
 0732818,-0.4549191,0.1626247,-0.6531986,0.0613062,-0.0088825,-0.058250
 9,-0.0101445,0.120297,-0.0283451,-0.0613707,-0.0846891,0.1402405,0.174
 7692,-0.0749425,-0.0177947,-0.0275633,0.2881271,-0.0026963,-0.048405,-
 0.0305516,0.1858037|Polar=138.6042613,10.7251136,104.7439278,9.0927847
 ,3.2939373,38.7196671|HyperPolar=-291.6273258,-75.3941226,51.5548045,-
 1.1816973,60.1085832,72.8258567,49.9509432,-31.945465,34.8733533,-18.7
 433721|PG=C01 [X(C8H8O2S1)]|NImag=0||0.64521512,-0.01933699,0.62360494
 ,0.03858863,-0.01742396,0.14583784,-0.32462782,-0.04893431,-0.01833240
 ,0.65709638,0.08271682,-0.09741611,0.00666899,0.01052265,0.60655257,-0
 .02243138,-0.00253993,-0.06589459,0.03641224,-0.01527140,0.14277528,-0
 .05969063,-0.01903357,-0.00391233,-0.15203965,-0.15795182,-0.00199876,
 0.69011104,-0.12725898,0.06480153,-0.01051789,-0.03624321,-0.24123246,
 0.00486220,-0.00103766,0.65993562,0.00008211,-0.00318573,0.00478074,-0
 .00543706,-0.00517133,-0.06492239,0.02396453,-0.01201296,0.16397590,-0
 .08182140,0.05140435,-0.00723803,0.09733590,0.03734602,0.00558507,-0.1
 2819668,0.02307119,-0.00363509,0.68440890,0.04726812,-0.04082394,0.004
 39197,-0.06458334,-0.08697202,-0.00309750,0.13925237,-0.25918842,0.015
 38031,0.01029326,0.66220377,-0.00637872,0.00467458,-0.00365692,0.00818
 673,0.00487761,0.00564273,-0.00734844,0.00642801,-0.06547887,0.0486416
 6,-0.00158619,0.16848071,0.10046899,-0.06928992,0.00882152,-0.09590681
 ,-0.04122673,-0.00538758,-0.02933558,0.13986634,-0.00629269,-0.3101154
 2,-0.03869295,-0.01762176,0.64181358,0.04006882,-0.09382370,0.00576000
 ,-0.04327695,-0.02855719,-0.00222362,0.03514835,0.03998206,0.00076044,
 0.08367950,-0.09220864,0.00645827,0.02562673,0.62714126,0.00555620,-0.
 00251497,0.00661182,-0.00554223,-0.00191413,-0.00313407,-0.00376651,0.
 00915373,0.00430748,-0.02103634,-0.00310819,-0.06505027,0.03805835,-0.
 00701353,0.14468088,-0.13736834,0.15228660,-0.01034945,-0.03165108,0.0
 3692087,-0.00393690,-0.00698815,-0.00802167,-0.00051802,-0.05615287,-0
 .02228132,-0.00438770,-0.16954312,-0.17349806,-0.00355112,0.61226635,0
 .01907238,-0.27434873,0.00908348,0.14549196,0.03909073,0.00947814,-0.0
 1106927,-0.11534856,0.00305620,-0.13024283,0.06023565,-0.01045685,-0.0
 4117744,-0.25225398,0.00045473,0.00766283,0.65464263,-0.00707191,0.019
 28944,-0.06667910,-0.00652195,0.00217564,0.00591213,0.00001900,0.00188
 194,-0.00346250,-0.00140735,-0.00248012,0.00523304,-0.00690146,-0.0088
 0848,-0.06491546,0.03757521,-0.01465581,0.14410764,-0.00011833,0.00006
 403,-0.00078272,-0.00094445,0.00015900,-0.00024429,-0.02901282,-0.0011
 3633,0.02579898,-0.00097521,0.00006394,0.00014339,0.00026598,-0.000059
 17,-0.00077383,0.00002181,-0.00016874,-0.00002532,0.07730798,-0.000270
 49,0.00018413,-0.00001570,0.00041638,-0.00008029,-0.00019986,0.0000164
 9,0.00484449,-0.00137383,0.00024011,-0.00078409,0.00023155,0.00021168,
 0.00008002,-0.00003223,-0.00005040,-0.00038102,0.00000112,0.00715596,0
 .03679607,-0.00006669,-0.00000322,-0.00004674,-0.00030274,-0.00014351,
 -0.00043284,0.01625894,0.00012816,-0.00282696,-0.00081830,-0.00003434,
 -0.00014668,0.00028656,0.00018369,-0.00008438,-0.00019103,-0.00018059,
 -0.00006117,-0.07732150,-0.01103332,0.22464355,-0.09276258,-0.08613142
 ,-0.00100616,-0.03383137,-0.02439484,-0.00216699,-0.00297992,0.0009486
 7,-0.00067072,0.00038950,0.00005897,-0.00004437,-0.00081975,0.00125378
 ,-0.00045786,0.00701663,0.00622821,-0.00013092,-0.00005102,0.00002633,
 -0.00000055,0.12332682,-0.08601817,-0.16043247,-0.00255889,-0.00967613
 ,-0.00014754,-0.00052631,-0.00008919,0.00007593,0.00016612,0.00035247,
 0.00036048,-0.00004673,0.00143486,-0.00239035,0.00041147,-0.00848056,-
 0.04034575,0.00087782,-0.00006423,0.00003231,0.00005655,0.10172415,0.2
 0277555,-0.00111281,-0.00249598,-0.04208943,-0.00249276,-0.00160610,0.
 00543168,-0.00053090,0.00006610,0.00561203,-0.00012633,0.00014631,0.00
 022829,-0.00049623,0.00033632,0.00524051,0.00038618,0.00191739,0.00572
 791,0.00007131,0.00002139,0.00004929,0.00416225,0.00174400,0.02390832,
 -0.02768399,0.02873320,-0.00328640,-0.06715560,0.07094626,-0.00406787,
 0.00702764,-0.01400893,0.00047087,-0.00126107,-0.00111060,-0.00042612,
 0.00031292,-0.00020578,0.00005531,-0.00315109,-0.00031198,-0.00062809,
 -0.00001438,-0.00028863,-0.00002663,-0.00074235,0.00028177,0.00002954,
 0.09433600,0.01484111,-0.00642716,0.00144071,0.07098912,-0.18575053,0.
 00956737,-0.00030705,-0.03933106,0.00162590,-0.00153119,-0.00200356,0.
 00014613,-0.00038381,0.00043984,-0.00007694,0.00011033,0.00047853,0.00
 018421,-0.00005689,0.00007581,0.00011782,-0.00003948,0.00091697,-0.000
 07904,-0.08330717,0.23301040,-0.00307398,0.00254919,0.00524479,-0.0038
 1173,0.00972939,-0.04182043,-0.00005021,0.00010838,0.00589761,-0.00048
 791,0.00035001,0.00513916,0.00020819,0.00000551,0.00010615,-0.00066970
 ,-0.00006509,0.00543040,0.00030175,0.00009264,0.00015364,0.00004050,-0
 .00005730,-0.00130806,0.00775628,-0.01258242,0.02408295,0.00241945,-0.
 00364601,0.00007151,-0.04440469,-0.01833728,-0.00024081,-0.25050019,0.
 01575616,-0.00904542,-0.03009346,0.02257763,-0.00296326,-0.00081886,0.
 00137815,0.00058863,-0.00101141,0.00218225,-0.00013469,-0.05624413,-0.
 00327808,0.06303023,-0.00022755,0.00047043,-0.00013938,-0.00103453,0.0
 0016640,0.00008110,0.49493849,-0.00022985,-0.00279230,0.00023662,-0.02
 750877,-0.00078849,-0.00051444,0.02324959,-0.05628037,0.00294792,0.030
 26036,-0.00738023,0.00093349,-0.00038744,-0.00285970,0.00020762,0.0001
 5372,0.00175077,-0.00000120,-0.00509052,-0.03139345,0.01497717,-0.0004
 8755,0.00006010,-0.00012891,-0.00026499,-0.00102519,0.00000760,-0.0325
 3303,0.36827218,-0.00050310,-0.00039169,0.00515904,-0.00200859,0.00022
 056,0.00685444,-0.00611503,0.00167822,-0.05974795,-0.00246229,0.000564
 97,0.00535919,-0.00108415,0.00091363,0.00505751,0.00035224,0.00030377,
 0.00016857,0.06101875,0.01366242,-0.18304641,0.00001087,0.00004939,-0.
 00051532,0.00035961,-0.00016413,-0.00192421,-0.01232364,-0.03609726,0.
 34093960,0.00207707,-0.00087934,0.00023968,-0.00259082,0.00083638,-0.0
 0045460,0.01286825,-0.00255435,-0.00110226,-0.10148847,-0.07463437,0.0
 0147446,-0.03756211,-0.02637581,-0.00274945,-0.00219136,0.00357609,-0.
 00142457,0.00041908,0.00064585,0.00068642,-0.00021956,-0.00029387,0.00
 010420,0.00032389,0.00010435,0.00007944,-0.00482354,-0.00166877,-0.000
 42776,0.42468755,0.00120493,-0.00037692,0.00013433,0.00070893,-0.00249
 609,0.00050903,-0.00732737,-0.04654378,-0.00132624,-0.07997594,-0.1789
 9449,-0.00371437,-0.01830750,-0.00361037,-0.00123205,0.00067281,0.0021
 2663,-0.00070118,0.00034750,0.00058224,0.00008089,-0.00012622,-0.00015
 263,0.00000088,-0.00025386,-0.00039765,-0.00001687,-0.00390174,-0.0040
 5043,-0.00112831,0.00990641,0.47242000,0.00130390,-0.00031462,0.000214
 09,-0.00228954,-0.00009582,0.00503395,0.00497757,-0.00086005,0.0041499
 8,0.00468918,-0.00019158,-0.05723415,-0.00468205,-0.00160918,0.0053682
 3,-0.00029160,0.00156386,0.00496904,0.00063311,0.00011254,0.00050777,-
 0.00012796,-0.00028341,-0.00085103,0.00023600,-0.00011905,-0.00027770,
 -0.00412135,-0.00243133,-0.00422527,0.00033194,0.00051484,0.40608184,-
 0.00125066,-0.00142612,-0.00046182,0.00035877,-0.00009264,0.00001142,-
 0.00294183,-0.00056216,-0.00054000,-0.02797995,0.02826843,-0.00298777,
 -0.06886148,0.07260091,-0.00341995,0.00638507,-0.01315869,0.00028791,-
 0.00001802,-0.00000271,-0.00001004,0.00021968,-0.00020136,0.00006452,-
 0.00004587,0.00009880,0.00005857,-0.00020089,0.00050701,-0.00007855,-0
 .00192428,0.00015484,-0.00035329,0.09619330,-0.00168651,-0.00196801,0.
 00003690,-0.00036450,0.00055200,-0.00004310,0.00057372,-0.00015098,0.0
 0016306,0.01383424,-0.00508744,0.00139102,0.07223838,-0.18337470,0.007
 84088,0.00132505,-0.04007265,0.00109776,0.00006792,-0.00000040,-0.0000
 4065,0.00011602,-0.00040004,0.00001631,0.00009302,-0.00019664,-0.00000
 046,-0.00049735,-0.00006569,-0.00014216,0.00008309,0.00061572,0.000111
 72,-0.08478659,0.23032951,-0.00025353,-0.00008865,0.00550440,-0.000253
 88,-0.00015650,0.00006398,-0.00061194,0.00029908,0.00533487,-0.0022534
 2,0.00232330,0.00562940,-0.00411206,0.00770450,-0.04240438,0.00016193,
 0.00029807,0.00579447,0.00006251,-0.00002600,0.00004733,0.00004629,-0.
 00002999,-0.00036913,0.00004870,-0.00001058,-0.00083967,-0.00005677,0.
 00005059,-0.00048029,0.00027904,0.00000123,-0.00132911,0.00705493,-0.0
 1022995,0.02412350,-0.02308868,0.01573230,-0.00275594,-0.00001870,0.00
 122176,-0.00046123,-0.00011457,0.00021224,0.00010413,-0.00040048,-0.00
 183713,-0.00041857,-0.02997790,-0.01305821,-0.00248859,-0.21739426,0.0
 1368783,-0.01424073,-0.00005656,0.00003253,0.00008247,0.00059124,0.000
 47682,0.00012892,-0.00019395,0.00013175,0.00000871,0.00068333,-0.00004
 130,-0.00000435,-0.00033027,0.00000304,-0.00009057,0.00038375,-0.00061
 341,0.00015597,0.27013109,0.03011837,-0.01030728,0.00284864,0.00093460
 ,-0.00277552,0.00032484,-0.00002410,0.00009677,-0.00000841,-0.00113548
 ,-0.00226406,0.00005389,-0.02747256,-0.00404846,-0.00182260,0.01363537
 ,-0.03515895,0.00091451,0.00000780,-0.00000331,-0.00000578,0.00078256,
 -0.00041557,0.00003601,0.00044945,0.00001994,0.00002263,-0.00004016,0.
 00003489,-0.00001319,-0.00034905,0.00007287,0.00005594,-0.00091617,-0.
 00021357,-0.00010360,-0.01585206,0.05504027,-0.00315936,0.00172781,0.0
 0518637,-0.00042092,0.00036493,0.00513033,0.00006027,-0.00002349,0.000
 29915,-0.00039884,0.00009046,0.00542091,-0.00208817,-0.00079858,0.0052
 1972,-0.01431122,0.00092731,-0.04253716,0.00013141,0.00001589,0.000042
 92,0.00010833,0.00000784,-0.00117123,-0.00002121,0.00000222,-0.0002830
 6,0.00000183,-0.00004667,-0.00091660,0.00002141,-0.00000937,-0.0003332
 2,0.00014960,-0.00008282,-0.00125964,0.01999236,-0.00219352,0.02507962
 ,0.00012585,-0.00010063,-0.00000365,0.00009187,-0.00054102,0.00021131,
 -0.00148587,-0.00109698,0.00000669,0.00736815,-0.01116346,-0.00256969,
 -0.00060451,-0.00162755,-0.00019811,-0.00012004,0.00024939,0.00002500,
 -0.00005738,0.00004312,0.00000029,0.00002155,0.00003788,-0.00001560,-0
 .00008315,-0.00004069,-0.00000591,0.00057283,-0.00022759,0.00039905,-0
 .07773711,0.07404963,0.02248868,-0.00050861,-0.00027167,-0.00016728,0.
 00003967,-0.00003384,-0.00000665,0.10596955,0.00025346,0.00004795,0.00
 001887,0.00010008,-0.00047333,0.00029194,-0.00152454,-0.00126769,-0.00
 032398,0.00243886,-0.03539493,-0.00812145,-0.00086839,-0.00123332,-0.0
 0023626,0.00016480,0.00016266,0.00021489,0.00002782,-0.00007497,-0.000
 07121,-0.00005307,-0.00008255,-0.00004147,-0.00004420,-0.00007827,-0.0
 0001463,-0.00011109,0.00047829,0.00017526,0.07252695,-0.15017638,-0.03
 461110,-0.00065746,0.00018318,-0.00018523,-0.00004787,0.00005511,-0.00
 001977,-0.09327590,0.19548724,0.00005503,-0.00005592,0.00000956,0.0000
 4904,-0.00009954,-0.00003786,-0.00006627,-0.00008080,0.00044305,0.0005
 9989,-0.00365146,0.00316025,-0.00052912,-0.00034043,-0.00003694,0.0000
 5206,0.00006726,-0.00006643,-0.00005342,0.00006830,-0.00003360,0.00000
 576,0.00000893,0.00001032,-0.00003522,0.00000815,0.00000019,0.00085514
 ,-0.00021803,0.00072310,0.02541490,-0.03894471,-0.04413680,-0.00018260
 ,0.00001439,0.00022638,-0.00000510,0.00000839,0.00003034,-0.01681901,0
 .03729427,0.05020264,0.00064210,-0.00018303,0.00039053,-0.00158144,0.0
 0116713,-0.00034622,-0.01905994,-0.01398942,-0.01206446,0.00099838,0.0
 0113650,0.00131549,-0.00055906,-0.00013096,0.00043282,0.00098782,0.000
 97038,-0.00003798,0.00655198,-0.00183639,-0.00565771,-0.00040452,-0.00
 058611,-0.00003053,0.00044272,-0.00065354,-0.00011818,-0.05152428,-0.0
 1472064,-0.03037659,-0.03267715,0.02143348,-0.01806206,-0.00024131,0.0
 0049968,-0.00016370,-0.00067037,0.00009245,-0.00014054,-0.00168659,0.0
 0141121,-0.00228011,0.45005603,-0.00193112,0.00113458,-0.00019447,0.00
 481990,0.00102079,-0.00074452,-0.02127563,-0.00077356,-0.00267519,-0.0
 0333849,-0.00280359,-0.00158184,0.00162258,-0.00071717,-0.00081735,0.0
 0050734,-0.00230880,0.00021030,-0.00252951,-0.00460930,-0.01704213,0.0
 0007610,-0.00007333,0.00010857,-0.00040574,-0.00028740,-0.00011908,-0.
 01353129,-0.05359780,-0.03222377,0.03116772,-0.01305912,0.02036351,0.0
 0013741,0.00041127,0.00008582,-0.00047639,-0.00001062,0.00007537,0.001
 95012,0.00003372,0.00168835,0.04503389,0.23368478,-0.00010868,0.000336
 87,0.00008947,0.00082598,-0.00006705,-0.00045937,-0.00955533,-0.005304
 08,-0.00200806,-0.00109508,0.00066890,-0.00059961,0.00045608,-0.000441
 28,-0.00022015,-0.00008421,-0.00029394,-0.00004829,-0.00976644,-0.0240
 4923,-0.02408020,0.00003911,-0.00001945,0.00009147,-0.00006318,0.00006
 983,0.00025559,-0.02712312,-0.02249729,-0.09043618,-0.01419775,0.02060
 530,0.00632863,0.00013916,0.00008678,0.00014983,0.00001101,-0.00000919
 ,0.00009802,-0.00382248,-0.00007731,-0.00478524,-0.09514993,-0.0250899
 4,0.31809231,-0.00025228,-0.00016960,0.00014678,-0.00106045,-0.0004368
 1,0.00008160,0.00263210,-0.00211212,-0.00154048,-0.00078813,0.00025303
 ,-0.00024206,0.00017466,-0.00000258,0.00003367,-0.00061054,-0.00023168
 ,-0.00000983,-0.00110461,0.00106455,0.00231909,0.00014427,0.00030933,-
 0.00003008,-0.00010291,0.00046973,-0.00011899,-0.02075774,-0.02027490,
 0.00425660,-0.00007634,0.00158691,0.00453151,0.00015307,-0.00022601,0.
 00000386,0.00041726,-0.00004401,0.00000915,-0.00020164,-0.00059896,-0.
 00076729,-0.27771293,-0.09524610,0.16835253,0.32261921,0.00003162,-0.0
 0019918,0.00008708,-0.00103567,-0.00002201,-0.00001940,0.00100474,-0.0
 0176292,-0.00112388,0.00013324,0.00040987,-0.00013149,-0.00013603,0.00
 016230,0.00012797,-0.00020958,0.00015925,0.00000294,0.00100738,0.00040
 184,0.00119759,0.00002882,0.00009883,-0.00001664,0.00006693,0.00012559
 ,-0.00004046,-0.02168288,-0.01070512,0.00378352,-0.00181343,0.00217434
 ,-0.00005130,0.00003917,-0.00016891,-0.00000548,0.00017894,-0.00001542
 ,-0.00001192,-0.00073594,-0.00028655,-0.00086924,-0.09785339,-0.050117
 46,0.06630049,0.10892226,0.06224647,-0.00007329,0.00006538,-0.00004254
 ,0.00043075,0.00045894,-0.00000941,-0.00308267,-0.00013829,-0.00028637
 ,0.00043766,-0.00049545,0.00062565,-0.00002820,0.00010028,0.00008278,0
 .00036512,-0.00001927,0.00003722,0.00285819,0.00252054,-0.00167740,-0.
 00008306,-0.00014543,-0.00001842,0.00005796,-0.00024644,-0.00008011,-0
 .00304721,-0.00181264,0.01810431,-0.00011491,-0.00242786,-0.00359929,-
 0.00008451,0.00012399,-0.00007949,-0.00022901,0.00002561,-0.00005720,0
 .00083988,0.00036547,0.00112700,0.17448162,0.06854514,-0.16049403,-0.1
 8326770,-0.06081348,0.13817681,-0.00219041,0.00072296,-0.00029185,0.00
 318671,0.00084528,0.00024325,-0.00756019,0.00082743,0.00096848,-0.0341
 0129,-0.01988921,-0.02804330,0.00143890,-0.00155893,-0.00101824,-0.000
 61619,-0.00251945,0.00106154,-0.00058056,-0.00050892,-0.00124242,0.000
 31505,0.00037247,-0.00003774,-0.00032527,0.00016517,-0.00001341,0.0114
 0775,0.00592025,0.00547442,-0.09441239,0.01354831,-0.09364128,0.000448
 39,-0.00030533,-0.00009845,0.00009026,-0.00014822,0.00009668,-0.024122
 89,0.01646305,-0.01979926,-0.08210811,0.06000788,-0.00619633,-0.022223
 61,0.01261030,0.00899327,0.25034382,0.00112754,-0.00068829,0.00013667,
 -0.00211802,-0.00050190,0.00064831,0.00531826,-0.00173202,-0.00098071,
 -0.01564577,0.00216025,-0.01660248,-0.00266988,-0.00133634,0.00056279,
 -0.00046614,0.00162488,0.00044176,-0.00022918,-0.00012799,0.00129745,0
 .00002167,0.00006214,-0.00011912,0.00009597,0.00018194,-0.00000683,0.0
 0561171,-0.01985765,-0.00637382,0.00223390,-0.04118855,-0.00379784,-0.
 00004819,-0.00041464,-0.00008434,0.00021337,-0.00004404,-0.00007668,0.
 02196530,-0.00861084,0.01839080,0.06079697,-0.07835211,-0.00945930,0.0
 0676389,-0.00235583,-0.00424766,-0.08619726,0.14937809,-0.00110461,0.0
 0033789,-0.00014551,0.00162630,0.00020979,0.00024341,-0.00385672,0.001
 24491,0.00079207,-0.02727303,-0.01691933,-0.01294373,0.00135459,-0.001
 04168,-0.00058797,-0.00055535,-0.00124731,0.00049674,-0.00044168,0.000
 69337,-0.00041174,0.00020240,0.00025389,-0.00005356,-0.00018841,0.0001
 6227,-0.00015512,0.01212284,-0.00929359,0.01024299,-0.08413091,0.00455
 194,-0.17411677,0.00028158,-0.00022409,-0.00020147,0.00013482,-0.00011
 635,-0.00000039,-0.01016174,0.00893870,-0.00000061,-0.01196227,-0.0002
 1157,-0.04766981,0.00746513,-0.00766497,0.01012785,0.13833783,0.015122
 27,0.25785361,-0.00022319,0.00011163,-0.00002379,0.00017406,0.00017911
 ,-0.00046374,-0.00036824,0.00004125,0.00018089,-0.01435333,-0.01496177
 ,0.01371586,-0.00008387,-0.00043472,0.00002494,-0.00001380,-0.00026125
 ,-0.00044654,-0.00000056,0.00012558,-0.00009916,0.00000181,0.00001464,
 0.00007978,0.00001417,-0.00000777,0.00001938,0.00033946,-0.00006848,0.
 00061610,-0.08420651,-0.01398943,0.08439390,-0.00005203,-0.00011998,0.
 00018390,-0.00001534,-0.00000308,0.00001911,-0.00749383,0.00377842,0.0
 1361002,0.00211799,-0.00022890,-0.00351493,0.00052113,-0.00075012,0.00
 110898,0.00127110,0.00443664,-0.02037149,0.10236581,-0.00002121,0.0000
 8799,-0.00001414,0.00024693,-0.00003027,-0.00051352,-0.00096575,-0.000
 84704,0.00016544,-0.02093109,-0.01171156,0.01684984,-0.00036638,-0.001
 36273,0.00000415,-0.00029529,-0.00005671,-0.00062828,0.00009609,-0.000
 34351,-0.00003907,-0.00001818,-0.00001848,0.00008882,-0.00002034,0.000
 00005,0.00004855,-0.00005887,0.00046259,-0.00015091,-0.01228449,-0.037
 24726,0.02134909,0.00005109,0.00002736,0.00015300,-0.00003687,-0.00005
 211,0.00002865,0.01087706,0.00128624,-0.01312006,0.00160181,-0.0004946
 4,0.00247241,-0.00076157,-0.00022790,0.00004062,0.00070701,0.00243244,
 0.00704172,0.02214724,0.04812335,-0.00038520,-0.00001110,-0.00004552,0
 .00040924,0.00015820,-0.00016793,-0.00075276,-0.00027852,0.00023846,0.
 00822164,0.00720672,-0.00019344,-0.00000105,0.00012473,-0.00028555,0.0
 0004954,-0.00027004,-0.00007900,-0.00009707,-0.00011760,0.00016218,0.0
 0006478,0.00009781,0.00003215,-0.00003799,0.00002508,0.00003004,0.0006
 7922,0.00027793,-0.00060991,0.07658812,0.02284894,-0.14653445,0.000063
 23,-0.00011408,0.00008503,0.00004011,-0.00001459,0.00003253,0.00989171
 ,-0.00359061,-0.00673484,-0.00116702,-0.00019723,-0.00042219,0.0007648
 3,0.00032941,-0.00097594,-0.00529126,0.00724115,-0.04140250,-0.0890162
 1,-0.03377672,0.19677826,0.00012937,0.00007606,0.00018617,-0.00243118,
 0.00012095,-0.00034475,-0.02236246,0.02729759,-0.01073005,-0.00277227,
 -0.00001748,-0.00004621,-0.00028770,0.00047172,0.00025267,0.00013429,0
 .00002030,0.00001210,0.00461162,-0.00374354,0.00307259,0.00001255,-0.0
 0006522,-0.00001465,-0.00066366,-0.00074947,-0.00020386,-0.04872004,0.
 04341460,-0.01710129,-0.00013614,0.00026561,0.00007611,-0.00011653,0.0
 0003995,-0.00002629,-0.00007539,-0.00000213,-0.00004332,-0.00008745,0.
 00001679,-0.00010439,0.00642429,-0.00636195,0.00085707,-0.00176711,0.0
 0019405,0.00043294,-0.00026240,-0.00120970,-0.00148191,0.00000464,0.00
 003262,-0.00002430,0.06836623,0.00005265,-0.00025921,-0.00011892,-0.00
 049318,0.00002600,0.00001194,0.01604248,-0.00527414,0.00391668,-0.0002
 4948,0.00024519,0.00019669,-0.00002524,-0.00003000,0.00000471,-0.00013
 563,0.00000506,-0.00001725,0.00033701,-0