 Default is to use a total of   8 processors:
                                8 via shared-memory
                                1 via Linda
 Entering Link 1 = C:\G16W\l1.exe PID=     17548.
  
 Copyright (c) 1988-2019, Gaussian, Inc.  All Rights Reserved.
  
 This is part of the Gaussian(R) 16 program.  It is based on
 the Gaussian(R) 09 system (copyright 2009, Gaussian, Inc.),
 the Gaussian(R) 03 system (copyright 2003, Gaussian, Inc.),
 the Gaussian(R) 98 system (copyright 1998, Gaussian, Inc.),
 the Gaussian(R) 94 system (copyright 1995, Gaussian, Inc.),
 the Gaussian 92(TM) system (copyright 1992, Gaussian, Inc.),
 the Gaussian 90(TM) system (copyright 1990, Gaussian, Inc.),
 the Gaussian 88(TM) system (copyright 1988, Gaussian, Inc.),
 the Gaussian 86(TM) system (copyright 1986, Carnegie Mellon
 University), and the Gaussian 82(TM) system (copyright 1983,
 Carnegie Mellon University). Gaussian is a federally registered
 trademark of Gaussian, Inc.
  
 This software contains proprietary and confidential information,
 including trade secrets, belonging to Gaussian, Inc.
  
 This software is provided under written license and may be
 used, copied, transmitted, or stored only in accord with that
 written license.
  
 The following legend is applicable only to US Government
 contracts under FAR:
  
                    RESTRICTED RIGHTS LEGEND
  
 Use, reproduction and disclosure by the US Government is
 subject to restrictions as set forth in subparagraphs (a)
 and (c) of the Commercial Computer Software - Restricted
 Rights clause in FAR 52.227-19.
  
 Gaussian, Inc.
 340 Quinnipiac St., Bldg. 40, Wallingford CT 06492
  
  
 ---------------------------------------------------------------
 Warning -- This program may not be used in any manner that
 competes with the business of Gaussian, Inc. or will provide
 assistance to any competitor of Gaussian, Inc.  The licensee
 of this program is prohibited from giving any competitor of
 Gaussian, Inc. access to this program.  By using this program,
 the user acknowledges that Gaussian, Inc. is engaged in the
 business of creating and licensing software in the field of
 computational chemistry and represents and warrants to the
 licensee that it is not a competitor of Gaussian, Inc. and that
 it will not use this program in any manner prohibited above.
 ---------------------------------------------------------------
  

 Cite this work as:
 Gaussian 16, Revision C.01,
 M. J. Frisch, G. W. Trucks, H. B. Schlegel, G. E. Scuseria, 
 M. A. Robb, J. R. Cheeseman, G. Scalmani, V. Barone, 
 G. A. Petersson, H. Nakatsuji, X. Li, M. Caricato, A. V. Marenich, 
 J. Bloino, B. G. Janesko, R. Gomperts, B. Mennucci, H. P. Hratchian, 
 J. V. Ortiz, A. F. Izmaylov, J. L. Sonnenberg, D. Williams-Young, 
 F. Ding, F. Lipparini, F. Egidi, J. Goings, B. Peng, A. Petrone, 
 T. Henderson, D. Ranasinghe, V. G. Zakrzewski, J. Gao, N. Rega, 
 G. Zheng, W. Liang, M. Hada, M. Ehara, K. Toyota, R. Fukuda, 
 J. Hasegawa, M. Ishida, T. Nakajima, Y. Honda, O. Kitao, H. Nakai, 
 T. Vreven, K. Throssell, J. A. Montgomery, Jr., J. E. Peralta, 
 F. Ogliaro, M. J. Bearpark, J. J. Heyd, E. N. Brothers, K. N. Kudin, 
 V. N. Staroverov, T. A. Keith, R. Kobayashi, J. Normand, 
 K. Raghavachari, A. P. Rendell, J. C. Burant, S. S. Iyengar, 
 J. Tomasi, M. Cossi, J. M. Millam, M. Klene, C. Adamo, R. Cammi, 
 J. W. Ochterski, R. L. Martin, K. Morokuma, O. Farkas, 
 J. B. Foresman, and D. J. Fox, Gaussian, Inc., Wallingford CT, 2019.
 
 ******************************************
 Gaussian 16:  EM64W-G16RevC.01 30-May-2019
                15-Nov-2025 
 ******************************************
 %chk=C:\Users\al6323\OneDrive - Imperial College London\Desktop\TSR20251115\Exer
 cise 3\DA reaction\TS_exo_Berny_opt+freq.chk
 Default route: MaxDisk=10GB
 ----------------------------------------------------------------------
 # opt=(calcfc,tight,ts,maxstep=5,noeigen) freq rpm6 nosymm geom=connec
 tivity scf=(tight,xqc)
 ----------------------------------------------------------------------
 1/5=1,7=10,8=5,10=4,11=1,18=20,26=1,38=1,57=2/1,3;
 2/9=110,12=2,15=1,17=6,18=5,40=1/2;
 3/5=2,25=1,41=3900000,71=2,116=1,140=1/1,2,3;
 4/35=1/1;
 5/5=2,8=3,13=1,32=2,35=1,38=5/2,8;
 8/6=4,10=90,11=11/1;
 11/6=1,8=1,9=11,15=111,16=1,31=1/1,2,10;
 10/6=1,13=1,31=1/2;
 6/7=2,8=2,9=2,10=2,28=1/1;
 7/10=1,25=1,30=1/1,2,3,16;
 1/5=1,7=10,8=5,10=4,11=1,18=20,26=1/3(2);
 2/9=110,15=1/2;
 99//99;
 2/9=110,15=1/2;
 3/5=2,25=1,41=3900000,71=1,116=1,135=20/1,2,3;
 4/5=5,16=3,35=1/1;
 5/5=2,8=3,13=1,32=2,35=1,38=5/2,8;
 7/30=1/1,2,3,16;
 1/5=1,7=10,8=5,11=1,18=20,26=1/3(-5);
 2/9=110,15=1/2;
 6/7=2,8=2,9=2,10=2,19=2,28=1/1;
 99/9=1/99;
 -------------------
 Title Card Required
 -------------------
 Symbolic Z-matrix:
 Charge =  0 Multiplicity = 1
 C                    -4.59622  -1.53024   0.47772 
 C                    -3.20519  -1.60254   0.42757 
 C                    -2.42853  -0.42972   0.39445 
 C                    -3.06501   0.82426   0.41878 
 C                    -4.4685    0.8843    0.47115 
 C                    -5.23097  -0.28244   0.49942 
 H                    -0.59402  -0.42957  -0.72045 
 H                    -5.18947  -2.44348   0.49883 
 H                    -2.71458  -2.57469   0.40683 
 C                    -0.94818  -0.53749   0.32768 
 C                    -2.3257    2.13741   0.3889 
 H                    -4.96828   1.85291   0.48704 
 H                    -6.3174   -0.22396   0.53719 
 H                    -2.63053   2.78114   1.24132 
 S                    -0.04645   1.21345   1.6992 
 O                     1.39526   1.26922   1.46374 
 O                    -0.32797   2.04343   0.40382 
 H                    -2.52981   2.6815   -0.56219 
 H                    -0.56341  -1.51822   0.65741 
 

 GradGradGradGradGradGradGradGradGradGradGradGradGradGradGradGradGradGrad
 Berny optimization.
 Initialization pass.
                           ----------------------------
                           !    Initial Parameters    !
                           ! (Angstroms and Degrees)  !
 --------------------------                            --------------------------
 ! Name  Definition              Value          Derivative Info.                !
 --------------------------------------------------------------------------------
 ! R1    R(1,2)                  1.3938         calculate D2E/DX2 analytically  !
 ! R2    R(1,6)                  1.4001         calculate D2E/DX2 analytically  !
 ! R3    R(1,8)                  1.0892         calculate D2E/DX2 analytically  !
 ! R4    R(2,3)                  1.407          calculate D2E/DX2 analytically  !
 ! R5    R(2,9)                  1.0891         calculate D2E/DX2 analytically  !
 ! R6    R(3,4)                  1.4065         calculate D2E/DX2 analytically  !
 ! R7    R(3,10)                 1.4858         calculate D2E/DX2 analytically  !
 ! R8    R(4,5)                  1.4058         calculate D2E/DX2 analytically  !
 ! R9    R(4,11)                 1.5073         calculate D2E/DX2 analytically  !
 ! R10   R(5,6)                  1.3941         calculate D2E/DX2 analytically  !
 ! R11   R(5,12)                 1.0901         calculate D2E/DX2 analytically  !
 ! R12   R(6,13)                 1.0887         calculate D2E/DX2 analytically  !
 ! R13   R(7,10)                 1.1116         calculate D2E/DX2 analytically  !
 ! R14   R(10,15)                2.4            calculate D2E/DX2 analytically  !
 ! R15   R(10,19)                1.1039         calculate D2E/DX2 analytically  !
 ! R16   R(11,14)                1.1108         calculate D2E/DX2 analytically  !
 ! R17   R(11,17)                2.0            calculate D2E/DX2 analytically  !
 ! R18   R(11,18)                1.1146         calculate D2E/DX2 analytically  !
 ! R19   R(15,16)                1.4619         calculate D2E/DX2 analytically  !
 ! R20   R(15,17)                1.564          calculate D2E/DX2 analytically  !
 ! A1    A(2,1,6)              119.9491         calculate D2E/DX2 analytically  !
 ! A2    A(2,1,8)              120.0508         calculate D2E/DX2 analytically  !
 ! A3    A(6,1,8)              120.0001         calculate D2E/DX2 analytically  !
 ! A4    A(1,2,3)              120.5631         calculate D2E/DX2 analytically  !
 ! A5    A(1,2,9)              119.7718         calculate D2E/DX2 analytically  !
 ! A6    A(3,2,9)              119.6638         calculate D2E/DX2 analytically  !
 ! A7    A(2,3,4)              119.5352         calculate D2E/DX2 analytically  !
 ! A8    A(2,3,10)             119.3778         calculate D2E/DX2 analytically  !
 ! A9    A(4,3,10)             121.0864         calculate D2E/DX2 analytically  !
 ! A10   A(3,4,5)              119.3756         calculate D2E/DX2 analytically  !
 ! A11   A(3,4,11)             123.6728         calculate D2E/DX2 analytically  !
 ! A12   A(5,4,11)             116.9515         calculate D2E/DX2 analytically  !
 ! A13   A(4,5,6)              120.7346         calculate D2E/DX2 analytically  !
 ! A14   A(4,5,12)             119.7516         calculate D2E/DX2 analytically  !
 ! A15   A(6,5,12)             119.5136         calculate D2E/DX2 analytically  !
 ! A16   A(1,6,5)              119.8419         calculate D2E/DX2 analytically  !
 ! A17   A(1,6,13)             120.0549         calculate D2E/DX2 analytically  !
 ! A18   A(5,6,13)             120.1032         calculate D2E/DX2 analytically  !
 ! A19   A(3,10,7)             110.6571         calculate D2E/DX2 analytically  !
 ! A20   A(3,10,15)            107.2028         calculate D2E/DX2 analytically  !
 ! A21   A(3,10,19)            113.4718         calculate D2E/DX2 analytically  !
 ! A22   A(7,10,15)            110.3834         calculate D2E/DX2 analytically  !
 ! A23   A(7,10,19)            104.8829         calculate D2E/DX2 analytically  !
 ! A24   A(15,10,19)           110.2735         calculate D2E/DX2 analytically  !
 ! A25   A(4,11,14)            110.7977         calculate D2E/DX2 analytically  !
 ! A26   A(4,11,17)            116.6703         calculate D2E/DX2 analytically  !
 ! A27   A(4,11,18)            110.6335         calculate D2E/DX2 analytically  !
 ! A28   A(14,11,17)           107.1942         calculate D2E/DX2 analytically  !
 ! A29   A(14,11,18)           108.764          calculate D2E/DX2 analytically  !
 ! A30   A(17,11,18)           102.2524         calculate D2E/DX2 analytically  !
 ! A31   A(10,15,16)           107.8377         calculate D2E/DX2 analytically  !
 ! A32   A(10,15,17)            81.1534         calculate D2E/DX2 analytically  !
 ! A33   A(16,15,17)            91.3674         calculate D2E/DX2 analytically  !
 ! A34   A(11,17,15)           102.1755         calculate D2E/DX2 analytically  !
 ! D1    D(6,1,2,3)             -0.1861         calculate D2E/DX2 analytically  !
 ! D2    D(6,1,2,9)           -179.7599         calculate D2E/DX2 analytically  !
 ! D3    D(8,1,2,3)            179.7413         calculate D2E/DX2 analytically  !
 ! D4    D(8,1,2,9)              0.1676         calculate D2E/DX2 analytically  !
 ! D5    D(2,1,6,5)             -0.0188         calculate D2E/DX2 analytically  !
 ! D6    D(2,1,6,13)           179.9148         calculate D2E/DX2 analytically  !
 ! D7    D(8,1,6,5)           -179.9463         calculate D2E/DX2 analytically  !
 ! D8    D(8,1,6,13)            -0.0127         calculate D2E/DX2 analytically  !
 ! D9    D(1,2,3,4)              0.3058         calculate D2E/DX2 analytically  !
 ! D10   D(1,2,3,10)          -179.4019         calculate D2E/DX2 analytically  !
 ! D11   D(9,2,3,4)            179.88           calculate D2E/DX2 analytically  !
 ! D12   D(9,2,3,10)             0.1723         calculate D2E/DX2 analytically  !
 ! D13   D(2,3,4,5)             -0.2201         calculate D2E/DX2 analytically  !
 ! D14   D(2,3,4,11)           179.9132         calculate D2E/DX2 analytically  !
 ! D15   D(10,3,4,5)           179.4825         calculate D2E/DX2 analytically  !
 ! D16   D(10,3,4,11)           -0.3842         calculate D2E/DX2 analytically  !
 ! D17   D(2,3,10,7)            97.4643         calculate D2E/DX2 analytically  !
 ! D18   D(2,3,10,15)         -142.1121         calculate D2E/DX2 analytically  !
 ! D19   D(2,3,10,19)          -20.1141         calculate D2E/DX2 analytically  !
 ! D20   D(4,3,10,7)           -82.2387         calculate D2E/DX2 analytically  !
 ! D21   D(4,3,10,15)           38.1849         calculate D2E/DX2 analytically  !
 ! D22   D(4,3,10,19)          160.1828         calculate D2E/DX2 analytically  !
 ! D23   D(3,4,5,6)              0.0181         calculate D2E/DX2 analytically  !
 ! D24   D(3,4,5,12)          -179.8056         calculate D2E/DX2 analytically  !
 ! D25   D(11,4,5,6)           179.8936         calculate D2E/DX2 analytically  !
 ! D26   D(11,4,5,12)            0.0699         calculate D2E/DX2 analytically  !
 ! D27   D(3,4,11,14)         -125.9981         calculate D2E/DX2 analytically  !
 ! D28   D(3,4,11,17)           -2.9974         calculate D2E/DX2 analytically  !
 ! D29   D(3,4,11,18)          113.2918         calculate D2E/DX2 analytically  !
 ! D30   D(5,4,11,14)           54.1323         calculate D2E/DX2 analytically  !
 ! D31   D(5,4,11,17)          177.133          calculate D2E/DX2 analytically  !
 ! D32   D(5,4,11,18)          -66.5779         calculate D2E/DX2 analytically  !
 ! D33   D(4,5,6,1)              0.1026         calculate D2E/DX2 analytically  !
 ! D34   D(4,5,6,13)          -179.831          calculate D2E/DX2 analytically  !
 ! D35   D(12,5,6,1)           179.9267         calculate D2E/DX2 analytically  !
 ! D36   D(12,5,6,13)           -0.0068         calculate D2E/DX2 analytically  !
 ! D37   D(3,10,15,16)        -170.3532         calculate D2E/DX2 analytically  !
 ! D38   D(3,10,15,17)         -81.7693         calculate D2E/DX2 analytically  !
 ! D39   D(7,10,15,16)         -49.7557         calculate D2E/DX2 analytically  !
 ! D40   D(7,10,15,17)          38.8282         calculate D2E/DX2 analytically  !
 ! D41   D(19,10,15,16)         65.6705         calculate D2E/DX2 analytically  !
 ! D42   D(19,10,15,17)        154.2544         calculate D2E/DX2 analytically  !
 ! D43   D(4,11,17,15)         -56.2632         calculate D2E/DX2 analytically  !
 ! D44   D(14,11,17,15)         68.5824         calculate D2E/DX2 analytically  !
 ! D45   D(18,11,17,15)       -177.1016         calculate D2E/DX2 analytically  !
 ! D46   D(10,15,17,11)         71.1014         calculate D2E/DX2 analytically  !
 ! D47   D(16,15,17,11)        178.9428         calculate D2E/DX2 analytically  !
 --------------------------------------------------------------------------------
 Trust Radius=5.00D-02 FncErr=1.00D-07 GrdErr=1.00D-07 EigMax=2.50D+02 EigMin=1.00D-04
 Number of steps in this run=    111 maximum allowed number of steps=    114.
 Search for a saddle point of order  1.
 GradGradGradGradGradGradGradGradGradGradGradGradGradGradGradGradGradGrad

                          Input orientation:                          
 ---------------------------------------------------------------------
 Center     Atomic      Atomic             Coordinates (Angstroms)
 Number     Number       Type             X           Y           Z
 ---------------------------------------------------------------------
      1          6           0       -4.596222   -1.530236    0.477719
      2          6           0       -3.205191   -1.602536    0.427567
      3          6           0       -2.428530   -0.429724    0.394446
      4          6           0       -3.065009    0.824258    0.418777
      5          6           0       -4.468503    0.884299    0.471155
      6          6           0       -5.230966   -0.282445    0.499422
      7          1           0       -0.594018   -0.429566   -0.720445
      8          1           0       -5.189466   -2.443483    0.498832
      9          1           0       -2.714580   -2.574692    0.406835
     10          6           0       -0.948180   -0.537488    0.327679
     11          6           0       -2.325705    2.137408    0.388901
     12          1           0       -4.968278    1.852911    0.487040
     13          1           0       -6.317404   -0.223965    0.537188
     14          1           0       -2.630532    2.781142    1.241318
     15         16           0       -0.046450    1.213455    1.699204
     16          8           0        1.395260    1.269223    1.463738
     17          8           0       -0.327969    2.043431    0.403818
     18          1           0       -2.529809    2.681499   -0.562188
     19          1           0       -0.563412   -1.518217    0.657410
 ---------------------------------------------------------------------
                    Distance matrix (angstroms):
                    1          2          3          4          5
     1  C    0.000000
     2  C    1.393812   0.000000
     3  C    2.432478   1.407049   0.000000
     4  C    2.809222   2.430855   1.406473   0.000000
     5  C    2.417919   2.789661   2.427762   1.405754   0.000000
     6  C    1.400126   2.419002   2.808266   2.433653   1.394073
     7  H    4.320267   3.084155   2.146722   2.995947   4.261195
     8  H    1.089221   2.156297   3.418901   3.898442   3.405096
     9  H    2.153251   1.089135   2.163993   3.416987   3.878788
    10  C    3.783685   2.497679   1.485769   2.518653   3.799307
    11  C    4.314481   3.842157   2.569196   1.507258   2.483673
    12  H    3.403556   3.879707   3.416037   2.164537   1.090063
    13  H    2.161561   3.405635   3.896928   3.419191   2.156628
    14  H    4.799479   4.495448   3.326808   2.166735   2.751236
    15  S    5.451632   4.418655   3.174388   3.301919   4.601196
    16  O    6.686334   5.521304   4.318701   4.602601   5.959623
    17  O    5.567274   4.644571   3.244833   2.996330   4.300249
    18  H    4.805224   4.448450   3.256549   2.167505   2.838355
    19  H    4.036830   2.653099   2.175462   3.435421   4.588737
                    6          7          8          9         10
     6  C    0.000000
     7  H    4.796979   0.000000
     8  H    2.161436   5.163393   0.000000
     9  H    3.405168   3.220110   2.480068   0.000000
    10  C    4.293810   1.111594   4.653022   2.697524   0.000000
    11  C    3.782651   3.289186   5.403496   4.728153   3.009384
    12  H    2.151489   5.079554   4.302100   4.968828   4.679807
    13  H    1.088666   5.863536   2.489975   4.303864   5.382449
    14  H    4.086347   4.278382   5.864821   5.421105   3.831233
    15  S    5.527785   2.975576   6.423760   4.810322   2.400000
    16  O    6.873460   3.407898   7.620619   5.725689   3.169628
    17  O    5.427542   2.729554   6.616311   5.198363   2.655485
    18  H    4.148280   3.667568   5.870688   5.347961   3.695307
    19  H    4.830958   1.756297   4.720343   2.409658   1.103901
                   11         12         13         14         15
    11  C    0.000000
    12  H    2.659654   0.000000
    13  H    4.640230   2.477110   0.000000
    14  H    1.110823   2.625948   4.808273   0.000000
    15  S    2.786680   5.109074   6.537685   3.056924   0.000000
    16  O    3.969206   6.464460   7.910328   4.306085   1.461876
    17  O    2.000000   4.644963   6.405638   2.558792   1.564014
    18  H    1.114569   2.780929   4.898594   1.809063   3.665532
    19  H    4.067107   5.549448   5.898980   4.806081   2.968942
                   16         17         18         19
    16  O    0.000000
    17  O    2.166183   0.000000
    18  H    4.637355   2.487649   0.000000
    19  H    3.500911   3.578418   4.794971   0.000000
 Symmetry turned off by external request.
 Stoichiometry    C8H8O2S
 Framework group  C1[X(C8H8O2S)]
 Deg. of freedom    51
 Full point group                 C1      NOp   1
 Rotational constants (GHZ):           2.4374590           0.5831533           0.5001544
 Standard basis: VSTO-6G (5D, 7F)
    57 basis functions,   348 primitive gaussians,    58 cartesian basis functions
    29 alpha electrons       29 beta electrons
       nuclear repulsion energy       331.4204229978 Hartrees.
 Integral buffers will be    131072 words long.
 Regular integral format.
 Two-electron integral symmetry is turned off.
 Do NDO integrals.
 One-electron integrals computed using PRISM.
 NBasis=    57 RedAO= F EigKep=  0.00D+00  NBF=    57
 NBsUse=    57 1.00D-04 EigRej=  0.00D+00 NBFU=    57
 Nonelectrostatic core Hamiltonian diagonalized for initial guess.
 Keep J ints in memory in canonical form, NReq=1859402.
 Overlap will be assumed to be unity.
 Requested convergence on RMS density matrix=1.00D-08 within  32 cycles.
 Requested convergence on MAX density matrix=1.00D-06.
 Requested convergence on             energy=1.00D-06.
 No special actions if energy rises.
 SCF Done:  E(RPM6) =  0.100136634656     A.U. after   24 cycles
            NFock= 23  Conv=0.82D-08     -V/T= 1.0009
 QCSCF skips out because SCF is already converged.
 Range of M.O.s used for correlation:     1    57
 NBasis=    57 NAE=    29 NBE=    29 NFC=     0 NFV=     0
 NROrb=     57 NOA=    29 NOB=    29 NVA=    28 NVB=    28
 Symmetrizing basis deriv contribution to polar:
 IMax=3 JMax=2 DiffMx= 0.00D+00
 G2DrvN: will do    20 centers at a time, making    1 passes.
 Calling FoFCou, ICntrl=  3107 FMM=F I1Cent=   0 AccDes= 0.00D+00.
 End of G2Drv F.D. properties file   721 does not exist.
 End of G2Drv F.D. properties file   722 does not exist.
 End of G2Drv F.D. properties file   788 does not exist.
          IDoAtm=1111111111111111111
          Differentiating once with respect to nuclear coordinates.
          Electric field/nuclear overlap derivatives assumed to be zero.
 Keep J ints in memory in canonical form, NReq=1861376.
          There are    60 degrees of freedom in the 1st order CPHF.  IDoFFX=5 NUNeed=    60.
 LinEq1:  Iter=  0 NonCon=    57 RMS=1.28D-02 Max=1.01D-01 NDo=    57
 AX will form    60 AO Fock derivatives at one time.
 LinEq1:  Iter=  1 NonCon=    57 RMS=4.89D-03 Max=6.77D-02 NDo=    60
 LinEq1:  Iter=  2 NonCon=    57 RMS=1.13D-03 Max=9.39D-03 NDo=    60
 LinEq1:  Iter=  3 NonCon=    57 RMS=3.29D-04 Max=4.27D-03 NDo=    60
 LinEq1:  Iter=  4 NonCon=    57 RMS=1.10D-04 Max=1.00D-03 NDo=    60
 LinEq1:  Iter=  5 NonCon=    57 RMS=3.30D-05 Max=3.68D-04 NDo=    60
 LinEq1:  Iter=  6 NonCon=    57 RMS=9.74D-06 Max=1.68D-04 NDo=    60
 LinEq1:  Iter=  7 NonCon=    57 RMS=2.59D-06 Max=2.37D-05 NDo=    60
 LinEq1:  Iter=  8 NonCon=    55 RMS=5.67D-07 Max=6.81D-06 NDo=    60
 LinEq1:  Iter=  9 NonCon=    40 RMS=1.53D-07 Max=1.89D-06 NDo=    60
 LinEq1:  Iter= 10 NonCon=    20 RMS=4.13D-08 Max=4.41D-07 NDo=    40
 LinEq1:  Iter= 11 NonCon=     1 RMS=1.10D-08 Max=1.05D-07 NDo=    20
 LinEq1:  Iter= 12 NonCon=     0 RMS=2.34D-09 Max=1.96D-08 NDo=     1
 Linear equations converged to 1.000D-08 1.000D-07 after    12 iterations.
 End of Minotr F.D. properties file   721 does not exist.
 End of Minotr F.D. properties file   722 does not exist.
 End of Minotr F.D. properties file   788 does not exist.

 **********************************************************************

            Population analysis using the SCF Density.

 **********************************************************************

 Alpha  occ. eigenvalues --   -1.17183  -1.11047  -1.02120  -0.99730  -0.98090
 Alpha  occ. eigenvalues --   -0.89730  -0.83535  -0.78721  -0.76109  -0.72148
 Alpha  occ. eigenvalues --   -0.63165  -0.58970  -0.58501  -0.58094  -0.55116
 Alpha  occ. eigenvalues --   -0.53523  -0.52629  -0.51929  -0.51120  -0.49924
 Alpha  occ. eigenvalues --   -0.46899  -0.45782  -0.45048  -0.41810  -0.41058
 Alpha  occ. eigenvalues --   -0.38580  -0.37021  -0.35763  -0.29724
 Alpha virt. eigenvalues --   -0.05005  -0.02111  -0.00720   0.01121   0.02217
 Alpha virt. eigenvalues --    0.05338   0.08448   0.10456   0.14083   0.14949
 Alpha virt. eigenvalues --    0.15798   0.16035   0.17019   0.17368   0.17682
 Alpha virt. eigenvalues --    0.17932   0.19611   0.19887   0.20031   0.20552
 Alpha virt. eigenvalues --    0.21243   0.21514   0.21842   0.22338   0.23310
 Alpha virt. eigenvalues --    0.23698   0.26027   0.26285
          Condensed to atoms (all electrons):
               1          2          3          4          5          6
     1  C    4.067970   0.000000   0.000000   0.000000   0.000000   0.000000
     2  C    0.000000   4.257194   0.000000   0.000000   0.000000   0.000000
     3  C    0.000000   0.000000   3.794595   0.000000   0.000000   0.000000
     4  C    0.000000   0.000000   0.000000   4.227977   0.000000   0.000000
     5  C    0.000000   0.000000   0.000000   0.000000   4.096631   0.000000
     6  C    0.000000   0.000000   0.000000   0.000000   0.000000   4.207864
     7  H    0.000000   0.000000   0.000000   0.000000   0.000000   0.000000
     8  H    0.000000   0.000000   0.000000   0.000000   0.000000   0.000000
     9  H    0.000000   0.000000   0.000000   0.000000   0.000000   0.000000
    10  C    0.000000   0.000000   0.000000   0.000000   0.000000   0.000000
    11  C    0.000000   0.000000   0.000000   0.000000   0.000000   0.000000
    12  H    0.000000   0.000000   0.000000   0.000000   0.000000   0.000000
    13  H    0.000000   0.000000   0.000000   0.000000   0.000000   0.000000
    14  H    0.000000   0.000000   0.000000   0.000000   0.000000   0.000000
    15  S    0.000000   0.000000   0.000000   0.000000   0.000000   0.000000
    16  O    0.000000   0.000000   0.000000   0.000000   0.000000   0.000000
    17  O    0.000000   0.000000   0.000000   0.000000   0.000000   0.000000
    18  H    0.000000   0.000000   0.000000   0.000000   0.000000   0.000000
    19  H    0.000000   0.000000   0.000000   0.000000   0.000000   0.000000
               7          8          9         10         11         12
     1  C    0.000000   0.000000   0.000000   0.000000   0.000000   0.000000
     2  C    0.000000   0.000000   0.000000   0.000000   0.000000   0.000000
     3  C    0.000000   0.000000   0.000000   0.000000   0.000000   0.000000
     4  C    0.000000   0.000000   0.000000   0.000000   0.000000   0.000000
     5  C    0.000000   0.000000   0.000000   0.000000   0.000000   0.000000
     6  C    0.000000   0.000000   0.000000   0.000000   0.000000   0.000000
     7  H    0.820965   0.000000   0.000000   0.000000   0.000000   0.000000
     8  H    0.000000   0.856991   0.000000   0.000000   0.000000   0.000000
     9  H    0.000000   0.000000   0.835860   0.000000   0.000000   0.000000
    10  C    0.000000   0.000000   0.000000   4.631822   0.000000   0.000000
    11  C    0.000000   0.000000   0.000000   0.000000   3.867759   0.000000
    12  H    0.000000   0.000000   0.000000   0.000000   0.000000   0.862800
    13  H    0.000000   0.000000   0.000000   0.000000   0.000000   0.000000
    14  H    0.000000   0.000000   0.000000   0.000000   0.000000   0.000000
    15  S    0.000000   0.000000   0.000000   0.000000   0.000000   0.000000
    16  O    0.000000   0.000000   0.000000   0.000000   0.000000   0.000000
    17  O    0.000000   0.000000   0.000000   0.000000   0.000000   0.000000
    18  H    0.000000   0.000000   0.000000   0.000000   0.000000   0.000000
    19  H    0.000000   0.000000   0.000000   0.000000   0.000000   0.000000
              13         14         15         16         17         18
     1  C    0.000000   0.000000   0.000000   0.000000   0.000000   0.000000
     2  C    0.000000   0.000000   0.000000   0.000000   0.000000   0.000000
     3  C    0.000000   0.000000   0.000000   0.000000   0.000000   0.000000
     4  C    0.000000   0.000000   0.000000   0.000000   0.000000   0.000000
     5  C    0.000000   0.000000   0.000000   0.000000   0.000000   0.000000
     6  C    0.000000   0.000000   0.000000   0.000000   0.000000   0.000000
     7  H    0.000000   0.000000   0.000000   0.000000   0.000000   0.000000
     8  H    0.000000   0.000000   0.000000   0.000000   0.000000   0.000000
     9  H    0.000000   0.000000   0.000000   0.000000   0.000000   0.000000
    10  C    0.000000   0.000000   0.000000   0.000000   0.000000   0.000000
    11  C    0.000000   0.000000   0.000000   0.000000   0.000000   0.000000
    12  H    0.000000   0.000000   0.000000   0.000000   0.000000   0.000000
    13  H    0.845535   0.000000   0.000000   0.000000   0.000000   0.000000
    14  H    0.000000   0.866354   0.000000   0.000000   0.000000   0.000000
    15  S    0.000000   0.000000   4.829764   0.000000   0.000000   0.000000
    16  O    0.000000   0.000000   0.000000   6.633054   0.000000   0.000000
    17  O    0.000000   0.000000   0.000000   0.000000   6.600907   0.000000
    18  H    0.000000   0.000000   0.000000   0.000000   0.000000   0.844604
    19  H    0.000000   0.000000   0.000000   0.000000   0.000000   0.000000
              19
     1  C    0.000000
     2  C    0.000000
     3  C    0.000000
     4  C    0.000000
     5  C    0.000000
     6  C    0.000000
     7  H    0.000000
     8  H    0.000000
     9  H    0.000000
    10  C    0.000000
    11  C    0.000000
    12  H    0.000000
    13  H    0.000000
    14  H    0.000000
    15  S    0.000000
    16  O    0.000000
    17  O    0.000000
    18  H    0.000000
    19  H    0.851354
 Mulliken charges:
               1
     1  C   -0.067970
     2  C   -0.257194
     3  C    0.205405
     4  C   -0.227977
     5  C   -0.096631
     6  C   -0.207864
     7  H    0.179035
     8  H    0.143009
     9  H    0.164140
    10  C   -0.631822
    11  C    0.132241
    12  H    0.137200
    13  H    0.154465
    14  H    0.133646
    15  S    1.170236
    16  O   -0.633054
    17  O   -0.600907
    18  H    0.155396
    19  H    0.148646
 Sum of Mulliken charges =   0.00000
 Mulliken charges with hydrogens summed into heavy atoms:
               1
     1  C    0.075039
     2  C   -0.093054
     3  C    0.205405
     4  C   -0.227977
     5  C    0.040569
     6  C   -0.053399
    10  C   -0.304142
    11  C    0.421284
    15  S    1.170236
    16  O   -0.633054
    17  O   -0.600907
 APT charges:
               1
     1  C   -0.067970
     2  C   -0.257194
     3  C    0.205405
     4  C   -0.227977
     5  C   -0.096631
     6  C   -0.207864
     7  H    0.179035
     8  H    0.143009
     9  H    0.164140
    10  C   -0.631822
    11  C    0.132241
    12  H    0.137200
    13  H    0.154465
    14  H    0.133646
    15  S    1.170236
    16  O   -0.633054
    17  O   -0.600907
    18  H    0.155396
    19  H    0.148646
 Sum of APT charges =   0.00000
 APT charges with hydrogens summed into heavy atoms:
               1
     1  C    0.075039
     2  C   -0.093054
     3  C    0.205405
     4  C   -0.227977
     5  C    0.040569
     6  C   -0.053399
    10  C   -0.304142
    11  C    0.421284
    15  S    1.170236
    16  O   -0.633054
    17  O   -0.600907
 Charge=              0.0000 electrons
 Dipole moment (field-independent basis, Debye):
    X=             -5.8379    Y=              0.2782    Z=              2.2289  Tot=              6.2551
 N-N= 3.314204229978D+02 E-N=-5.163363580199D+02  KE=-1.094428290026D+02
  Exact polarizability:       0.000       0.000       0.000       0.000       0.000       0.000
 Approx polarizability:     139.018      16.473     106.756      12.391      10.294      39.414
 Calling FoFJK, ICntrl=    100127 FMM=F ISym2X=0 I1Cent= 0 IOpClX= 0 NMat=1 NMatS=1 NMatT=0.
 -------------------------------------------------------------------
 Center     Atomic                   Forces (Hartrees/Bohr)
 Number     Number              X              Y              Z
 -------------------------------------------------------------------
      1        6           0.003984788   -0.001758397   -0.000141374
      2        6          -0.007282798   -0.002991002    0.001657392
      3        6           0.032298829    0.006140648    0.002573487
      4        6           0.022722311    0.007472277    0.001357449
      5        6          -0.001649141    0.003342263    0.000419884
      6        6          -0.000243156    0.003795408    0.000000639
      7        1           0.003671645    0.012355967    0.017604582
      8        1          -0.000233082   -0.000115191   -0.000069090
      9        1           0.000439442    0.000290238   -0.000022018
     10        6          -0.003539907    0.008216715    0.020490900
     11        6           0.029337487   -0.006083973   -0.006634113
     12        1          -0.000620750   -0.000401082   -0.000007400
     13        1           0.000464429    0.000219735   -0.000073346
     14        1           0.022772400   -0.004280139   -0.001812935
     15       16          -0.006504243   -0.058159303   -0.046782365
     16        8           0.024418200   -0.019511152    0.028786145
     17        8          -0.142578412    0.042198495   -0.025413514
     18        1           0.021961844   -0.005679622    0.004692698
     19        1           0.000580112    0.014948117    0.003372978
 -------------------------------------------------------------------
 Cartesian Forces:  Max     0.142578412 RMS     0.024842925
 FormGI is forming the generalized inverse of G from B-inverse, IUseBI=4.

 GradGradGradGradGradGradGradGradGradGradGradGradGradGradGradGradGradGrad
 Berny optimization.
 Internal  Forces:  Max     0.098573011 RMS     0.015657372
 Search for a saddle point.
 Step number   1 out of a maximum of  111
 All quantities printed in internal units (Hartrees-Bohrs-Radians)
 Swapping is turned off.
 Second derivative matrix not updated -- analytic derivatives used.
 ITU=  0
     Eigenvalues ---   -0.04071  -0.01098  -0.00153   0.00347   0.01036
     Eigenvalues ---    0.01137   0.01233   0.01536   0.01797   0.02129
     Eigenvalues ---    0.02458   0.02610   0.02778   0.02829   0.03008
     Eigenvalues ---    0.03302   0.03367   0.04129   0.05664   0.06359
     Eigenvalues ---    0.07057   0.08176   0.08925   0.10076   0.10911
     Eigenvalues ---    0.11043   0.11216   0.12357   0.13366   0.14978
     Eigenvalues ---    0.15022   0.15596   0.16127   0.23624   0.24181
     Eigenvalues ---    0.24220   0.24656   0.25524   0.26358   0.26481
     Eigenvalues ---    0.27601   0.28099   0.31932   0.34268   0.35724
     Eigenvalues ---    0.48151   0.52149   0.52725   0.53766   0.55988
     Eigenvalues ---    0.68597
 Eigenvectors required to have negative eigenvalues:
                          R17       R14       R20       D46       D37
   1                   -0.83125  -0.38264   0.13767   0.11282   0.11212
                          D32       D29       D41       A30       A20
   1                    0.10880   0.10500   0.10289   0.08371  -0.08157
 RFO step:  Lambda0=8.106938040D-02 Lambda=-7.76886356D-02.
 Linear search not attempted -- option 19 set.
 Maximum step size (   0.050) exceeded in Quadratic search.
    -- Step size scaled by   0.059
 Iteration  1 RMS(Cart)=  0.00566263 RMS(Int)=  0.00005193
 Iteration  2 RMS(Cart)=  0.00004460 RMS(Int)=  0.00002761
 Iteration  3 RMS(Cart)=  0.00000000 RMS(Int)=  0.00002761
 Variable       Old X    -DE/DX   Delta X   Delta X   Delta X     New X
                                 (Linear)    (Quad)   (Total)
    R1        2.63392  -0.00220   0.00000  -0.00201  -0.00200   2.63192
    R2        2.64585   0.00251   0.00000   0.00172   0.00172   2.64758
    R3        2.05833   0.00022   0.00000   0.00019   0.00019   2.05852
    R4        2.65894   0.00472   0.00000   0.00283   0.00283   2.66177
    R5        2.05817  -0.00006   0.00000   0.00011   0.00011   2.05827
    R6        2.65785   0.00242   0.00000   0.00030   0.00030   2.65815
    R7        2.80770  -0.02516   0.00000  -0.00647  -0.00647   2.80123
    R8        2.65649   0.00072   0.00000   0.00186   0.00186   2.65835
    R9        2.84830  -0.02104   0.00000  -0.00733  -0.00733   2.84097
   R10        2.63442  -0.00263   0.00000  -0.00178  -0.00178   2.63263
   R11        2.05992  -0.00007   0.00000  -0.00001  -0.00001   2.05991
   R12        2.05728  -0.00045   0.00000  -0.00016  -0.00016   2.05712
   R13        2.10061  -0.01423   0.00000  -0.00331  -0.00331   2.09730
   R14        4.53534  -0.06219   0.00000   0.00362   0.00362   4.53897
   R15        2.08607  -0.01207   0.00000  -0.00212  -0.00212   2.08395
   R16        2.09915  -0.01012   0.00000  -0.00191  -0.00191   2.09724
   R17        3.77945  -0.09857   0.00000   0.03493   0.03493   3.81438
   R18        2.10623  -0.01080   0.00000  -0.00240  -0.00240   2.10383
   R19        2.76255   0.01870   0.00000  -0.00122  -0.00122   2.76132
   R20        2.95556   0.04518   0.00000  -0.00471  -0.00471   2.95085
    A1        2.09351   0.00084   0.00000   0.00040   0.00040   2.09390
    A2        2.09528  -0.00029   0.00000   0.00049   0.00049   2.09577
    A3        2.09440  -0.00056   0.00000  -0.00089  -0.00089   2.09351
    A4        2.10422   0.00065   0.00000   0.00120   0.00120   2.10542
    A5        2.09041   0.00022   0.00000   0.00054   0.00055   2.09096
    A6        2.08853  -0.00087   0.00000  -0.00175  -0.00175   2.08678
    A7        2.08628  -0.00363   0.00000  -0.00252  -0.00252   2.08376
    A8        2.08354   0.00160   0.00000   0.00023   0.00023   2.08377
    A9        2.11336   0.00205   0.00000   0.00230   0.00230   2.11565
   A10        2.08350   0.00260   0.00000   0.00140   0.00140   2.08490
   A11        2.15850   0.00598   0.00000   0.00198   0.00197   2.16047
   A12        2.04119  -0.00858   0.00000  -0.00338  -0.00338   2.03781
   A13        2.10722  -0.00075   0.00000  -0.00017  -0.00017   2.10705
   A14        2.09006   0.00113   0.00000  -0.00010  -0.00010   2.08996
   A15        2.08591  -0.00039   0.00000   0.00027   0.00027   2.08618
   A16        2.09163   0.00029   0.00000  -0.00032  -0.00032   2.09132
   A17        2.09535   0.00011   0.00000  -0.00034  -0.00034   2.09502
   A18        2.09620  -0.00040   0.00000   0.00065   0.00065   2.09685
   A19        1.93133   0.00911   0.00000   0.00651   0.00651   1.93785
   A20        1.87104  -0.00634   0.00000   0.00401   0.00402   1.87506
   A21        1.98046   0.00694   0.00000   0.00119   0.00119   1.98165
   A22        1.92655  -0.00899   0.00000  -0.00946  -0.00947   1.91708
   A23        1.83055   0.00377   0.00000   0.00235   0.00230   1.83286
   A24        1.92464  -0.00470   0.00000  -0.00521  -0.00522   1.91941
   A25        1.93378   0.00996   0.00000   0.00802   0.00794   1.94172
   A26        2.03628  -0.00339   0.00000  -0.00261  -0.00260   2.03368
   A27        1.93092   0.01687   0.00000   0.01146   0.01139   1.94231
   A28        1.87089  -0.01131   0.00000  -0.01208  -0.01207   1.85882
   A29        1.89829   0.00392   0.00000   0.00928   0.00909   1.90738
   A30        1.78464  -0.01800   0.00000  -0.01513  -0.01512   1.76952
   A31        1.88212   0.00457   0.00000   0.00133   0.00130   1.88342
   A32        1.41639   0.00607   0.00000   0.00214   0.00215   1.41854
   A33        1.59466   0.03932   0.00000   0.01399   0.01399   1.60865
   A34        1.78330   0.00859   0.00000  -0.00167  -0.00167   1.78163
    D1       -0.00325  -0.00044   0.00000  -0.00057  -0.00057  -0.00382
    D2       -3.13740  -0.00140   0.00000  -0.00026  -0.00026  -3.13766
    D3        3.13708   0.00028   0.00000  -0.00052  -0.00052   3.13656
    D4        0.00292  -0.00067   0.00000  -0.00020  -0.00020   0.00272
    D5       -0.00033   0.00076   0.00000  -0.00020  -0.00020  -0.00053
    D6        3.14011   0.00045   0.00000  -0.00008  -0.00009   3.14002
    D7       -3.14065   0.00003   0.00000  -0.00026  -0.00026  -3.14091
    D8       -0.00022  -0.00028   0.00000  -0.00014  -0.00014  -0.00036
    D9        0.00534  -0.00101   0.00000   0.00088   0.00088   0.00621
   D10       -3.13115  -0.00299   0.00000  -0.00120  -0.00120  -3.13235
   D11        3.13950  -0.00005   0.00000   0.00057   0.00057   3.14007
   D12        0.00301  -0.00203   0.00000  -0.00151  -0.00150   0.00150
   D13       -0.00384   0.00212   0.00000  -0.00042  -0.00042  -0.00426
   D14        3.14008   0.00180   0.00000  -0.00118  -0.00118   3.13889
   D15        3.13256   0.00413   0.00000   0.00169   0.00169   3.13425
   D16       -0.00671   0.00381   0.00000   0.00093   0.00093  -0.00578
   D17        1.70107   0.01142   0.00000   0.00605   0.00606   1.70713
   D18       -2.48032   0.00184   0.00000   0.00081   0.00082  -2.47951
   D19       -0.35106  -0.00416   0.00000  -0.00218  -0.00218  -0.35324
   D20       -1.43534   0.00943   0.00000   0.00396   0.00396  -1.43138
   D21        0.66645  -0.00015   0.00000  -0.00129  -0.00128   0.66517
   D22        2.79572  -0.00615   0.00000  -0.00428  -0.00428   2.79144
   D23        0.00032  -0.00181   0.00000  -0.00034  -0.00034  -0.00002
   D24       -3.13820  -0.00070   0.00000  -0.00005  -0.00005  -3.13825
   D25        3.13974  -0.00150   0.00000   0.00038   0.00038   3.14012
   D26        0.00122  -0.00039   0.00000   0.00067   0.00067   0.00189
   D27       -2.19908   0.01506   0.00000   0.01074   0.01081  -2.18827
   D28       -0.05231   0.00542   0.00000  -0.00098  -0.00098  -0.05329
   D29        1.97731  -0.00771   0.00000  -0.01389  -0.01396   1.96335
   D30        0.94479   0.01474   0.00000   0.00999   0.01006   0.95485
   D31        3.09155   0.00509   0.00000  -0.00173  -0.00173   3.08983
   D32       -1.16200  -0.00804   0.00000  -0.01464  -0.01471  -1.17672
   D33        0.00179   0.00038   0.00000   0.00066   0.00066   0.00245
   D34       -3.13864   0.00069   0.00000   0.00054   0.00054  -3.13810
   D35        3.14031  -0.00073   0.00000   0.00037   0.00037   3.14068
   D36       -0.00012  -0.00042   0.00000   0.00025   0.00025   0.00013
   D37       -2.97322  -0.02115   0.00000  -0.01602  -0.01602  -2.98924
   D38       -1.42714   0.02188   0.00000  -0.00066  -0.00066  -1.42780
   D39       -0.86840  -0.01920   0.00000  -0.01113  -0.01116  -0.87956
   D40        0.67768   0.02383   0.00000   0.00422   0.00421   0.68189
   D41        1.14617  -0.02264   0.00000  -0.01687  -0.01686   1.12931
   D42        2.69225   0.02039   0.00000  -0.00152  -0.00150   2.69075
   D43       -0.98198   0.01066   0.00000   0.00233   0.00234  -0.97964
   D44        1.19699   0.01212   0.00000   0.00113   0.00111   1.19810
   D45       -3.09101   0.00433   0.00000   0.00028   0.00030  -3.09070
   D46        1.24095   0.00752   0.00000  -0.00608  -0.00609   1.23487
   D47        3.12314   0.00587   0.00000  -0.00697  -0.00694   3.11620
         Item               Value     Threshold  Converged?
 Maximum Force            0.098573     0.000015     NO 
 RMS     Force            0.015657     0.000010     NO 
 Maximum Displacement     0.028465     0.000060     NO 
 RMS     Displacement     0.005654     0.000040     NO 
 Predicted change in Energy= 3.315166D-04
 GradGradGradGradGradGradGradGradGradGradGradGradGradGradGradGradGradGrad

                          Input orientation:                          
 ---------------------------------------------------------------------
 Center     Atomic      Atomic             Coordinates (Angstroms)
 Number     Number       Type             X           Y           Z
 ---------------------------------------------------------------------
      1          6           0       -4.595854   -1.531388    0.478754
      2          6           0       -3.205844   -1.601957    0.427311
      3          6           0       -2.428446   -0.427901    0.391988
      4          6           0       -3.068142    0.824611    0.416699
      5          6           0       -4.472613    0.883126    0.471010
      6          6           0       -5.233018   -0.283806    0.500415
      7          1           0       -0.590603   -0.423755   -0.718055
      8          1           0       -5.188454   -2.445145    0.501035
      9          1           0       -2.713498   -2.573305    0.406863
     10          6           0       -0.951473   -0.535084    0.325558
     11          6           0       -2.336658    2.137683    0.386429
     12          1           0       -4.973360    1.851224    0.487184
     13          1           0       -6.319449   -0.227440    0.539139
     14          1           0       -2.629800    2.781290    1.241719
     15         16           0       -0.040619    1.215963    1.694277
     16          8           0        1.403283    1.254160    1.473183
     17          8           0       -0.320286    2.046705    0.401990
     18          1           0       -2.524717    2.683224   -0.565649
     19          1           0       -0.565415   -1.512930    0.658567
 ---------------------------------------------------------------------
                    Distance matrix (angstroms):
                    1          2          3          4          5
     1  C    0.000000
     2  C    1.392751   0.000000
     3  C    2.433695   1.408547   0.000000
     4  C    2.808645   2.430495   1.406630   0.000000
     5  C    2.417669   2.789669   2.429745   1.406739   0.000000
     6  C    1.401037   2.419153   2.810364   2.433575   1.393130
     7  H    4.324494   3.088610   2.147063   2.997380   4.265187
     8  H    1.089322   2.155723   3.420352   3.897966   3.404514
     9  H    2.152679   1.089192   2.164309   3.416387   3.878855
    10  C    3.781218   2.496149   1.482346   2.517412   3.798803
    11  C    4.309822   3.839539   2.567231   1.503377   2.478582
    12  H    3.403622   3.879711   3.417611   2.165354   1.090056
    13  H    2.162106   3.405340   3.898941   3.419473   2.156107
    14  H    4.800695   4.495325   3.325882   2.168270   2.755536
    15  S    5.456703   4.423181   3.178044   3.309269   4.609744
    16  O    6.688633   5.522255   4.322089   4.614576   5.972284
    17  O    5.575762   4.651862   3.250863   3.007398   4.312830
    18  H    4.810752   4.451144   3.256599   2.171350   2.847686
    19  H    4.034491   2.652032   2.172380   3.433110   4.587207
                    6          7          8          9         10
     6  C    0.000000
     7  H    4.801695   0.000000
     8  H    2.161798   5.168408   0.000000
     9  H    3.405662   3.223770   2.480061   0.000000
    10  C    4.292475   1.109843   4.650928   2.695494   0.000000
    11  C    3.776970   3.290829   5.398905   4.726080   3.011001
    12  H    2.150803   5.082981   4.301772   4.968892   4.679334
    13  H    1.088581   5.868454   2.489742   4.303889   5.381025
    14  H    4.089143   4.274500   5.866084   5.419933   3.828115
    15  S    5.534946   2.968250   6.428666   4.812512   2.401918
    16  O    6.881286   3.404776   7.621084   5.721399   3.172272
    17  O    5.438373   2.725939   6.624619   5.203074   2.658923
    18  H    4.156279   3.662969   5.876519   5.349067   3.691457
    19  H    4.829314   1.755570   4.718722   2.408737   1.102778
                   11         12         13         14         15
    11  C    0.000000
    12  H    2.654130   0.000000
    13  H    4.634624   2.476994   0.000000
    14  H    1.109813   2.631847   4.812440   0.000000
    15  S    2.798541   5.117867   6.545339   3.059235   0.000000
    16  O    3.993596   6.479988   7.918848   4.318733   1.461230
    17  O    2.018483   4.657957   6.417203   2.564880   1.561523
    18  H    1.113299   2.792227   4.908412   1.813074   3.664815
    19  H    4.066735   5.547692   5.897089   4.800216   2.965630
                   16         17         18         19
    16  O    0.000000
    17  O    2.178594   0.000000
    18  H    4.650617   2.490180   0.000000
    19  H    3.492299   3.577279   4.790123   0.000000
 Symmetry turned off by external request.
 Stoichiometry    C8H8O2S
 Framework group  C1[X(C8H8O2S)]
 Deg. of freedom    51
 Full point group                 C1      NOp   1
 Rotational constants (GHZ):           2.4339048           0.5818051           0.4989554
 Standard basis: VSTO-6G (5D, 7F)
    57 basis functions,   348 primitive gaussians,    58 cartesian basis functions
    29 alpha electrons       29 beta electrons
       nuclear repulsion energy       331.2639487343 Hartrees.
 Integral buffers will be    131072 words long.
 Regular integral format.
 Two-electron integral symmetry is turned off.
 Do NDO integrals.
 One-electron integrals computed using PRISM.
 NBasis=    57 RedAO= F EigKep=  0.00D+00  NBF=    57
 NBsUse=    57 1.00D-04 EigRej=  0.00D+00 NBFU=    57
 Initial guess from the checkpoint file:  "C:\Users\al6323\OneDrive - Imperial College London\Desktop\TSR20251115\Exercise 3\DA reaction\TS_exo_Berny_opt+freq.chk"
 B after Tr=     0.000841   -0.002793   -0.002206
         Rot=    1.000000   -0.000029   -0.000120    0.000279 Ang=  -0.03 deg.
 Keep J ints in memory in canonical form, NReq=1859402.
 Overlap will be assumed to be unity.
 Requested convergence on RMS density matrix=1.00D-08 within  32 cycles.
 Requested convergence on MAX density matrix=1.00D-06.
 Requested convergence on             energy=1.00D-06.
 No special actions if energy rises.
 SCF Done:  E(RPM6) =  0.100466481888     A.U. after   17 cycles
            NFock= 16  Conv=0.72D-08     -V/T= 1.0009
 QCSCF skips out because SCF is already converged.
 Calling FoFJK, ICntrl=      2127 FMM=F ISym2X=0 I1Cent= 0 IOpClX= 0 NMat=1 NMatS=1 NMatT=0.
 -------------------------------------------------------------------
 Center     Atomic                   Forces (Hartrees/Bohr)
 Number     Number              X              Y              Z
 -------------------------------------------------------------------
      1        6           0.003796739   -0.001662725   -0.000122190
      2        6          -0.006946944   -0.002828986    0.001690838
      3        6           0.030683216    0.005998913    0.002435950
      4        6           0.021877239    0.007056092    0.001298635
      5        6          -0.001587168    0.003173166    0.000479032
      6        6          -0.000242471    0.003608694    0.000000278
      7        1           0.003492405    0.012163855    0.016898478
      8        1          -0.000231263   -0.000105490   -0.000072454
      9        1           0.000433853    0.000282779   -0.000032897
     10        6          -0.002385679    0.008522687    0.020683895
     11        6           0.029322901   -0.005195988   -0.006558209
     12        1          -0.000586102   -0.000379576   -0.000003705
     13        1           0.000438369    0.000199765   -0.000078952
     14        1           0.022101410   -0.004214059   -0.001782641
     15       16          -0.006390498   -0.057011082   -0.046749242
     16        8           0.022590712   -0.019127689    0.027991063
     17        8          -0.138363373    0.040923937   -0.023884994
     18        1           0.021285501   -0.005745940    0.004572573
     19        1           0.000711154    0.014341647    0.003234542
 -------------------------------------------------------------------
 Cartesian Forces:  Max     0.138363373 RMS     0.024155018

 GradGradGradGradGradGradGradGradGradGradGradGradGradGradGradGradGradGrad
 Berny optimization.
 FormGI is forming the generalized inverse of G from B-inverse, IUseBI=4.
 Internal  Forces:  Max     0.096206175 RMS     0.015203685
 Search for a saddle point.
 Step number   2 out of a maximum of  111
 All quantities printed in internal units (Hartrees-Bohrs-Radians)
 Swapping is turned off.
 Update second derivatives using D2CorX and points    1    2
 ITU=  0  0
     Eigenvalues ---   -0.04210  -0.01092  -0.00154   0.00349   0.01037
     Eigenvalues ---    0.01137   0.01233   0.01536   0.01797   0.02128
     Eigenvalues ---    0.02458   0.02610   0.02778   0.02830   0.03008
     Eigenvalues ---    0.03304   0.03367   0.04144   0.05668   0.06359
     Eigenvalues ---    0.07059   0.08181   0.08926   0.10076   0.10911
     Eigenvalues ---    0.11042   0.11216   0.12344   0.13351   0.14974
     Eigenvalues ---    0.15021   0.15596   0.16127   0.23624   0.24181
     Eigenvalues ---    0.24220   0.24657   0.25524   0.26358   0.26481
     Eigenvalues ---    0.27601   0.28099   0.31934   0.34269   0.35723
     Eigenvalues ---    0.48152   0.52149   0.52725   0.53766   0.55982
     Eigenvalues ---    0.68597
 Eigenvectors required to have negative eigenvalues:
                          R17       R14       R20       D46       D37
   1                   -0.83139  -0.37993   0.13904   0.11363   0.11288
                          D32       D29       D41       A30       A20
   1                    0.11153   0.10733   0.10375   0.08470  -0.08272
 RFO step:  Lambda0=7.802174678D-02 Lambda=-7.54562210D-02.
 Linear search not attempted -- option 19 set.
 Maximum step size (   0.050) exceeded in Quadratic search.
    -- Step size scaled by   0.059
 Iteration  1 RMS(Cart)=  0.00575111 RMS(Int)=  0.00005290
 Iteration  2 RMS(Cart)=  0.00004544 RMS(Int)=  0.00002824
 Iteration  3 RMS(Cart)=  0.00000000 RMS(Int)=  0.00002824
 Variable       Old X    -DE/DX   Delta X   Delta X   Delta X     New X
                                 (Linear)    (Quad)   (Total)
    R1        2.63192  -0.00209   0.00000  -0.00201  -0.00201   2.62991
    R2        2.64758   0.00238   0.00000   0.00174   0.00174   2.64932
    R3        2.05852   0.00021   0.00000   0.00019   0.00019   2.05871
    R4        2.66177   0.00447   0.00000   0.00283   0.00283   2.66460
    R5        2.05827  -0.00006   0.00000   0.00011   0.00011   2.05838
    R6        2.65815   0.00232   0.00000   0.00033   0.00032   2.65847
    R7        2.80123  -0.02392   0.00000  -0.00636  -0.00636   2.79487
    R8        2.65835   0.00071   0.00000   0.00188   0.00188   2.66023
    R9        2.84097  -0.01994   0.00000  -0.00726  -0.00726   2.83371
   R10        2.63263  -0.00249   0.00000  -0.00179  -0.00179   2.63084
   R11        2.05991  -0.00007   0.00000  -0.00001  -0.00001   2.05990
   R12        2.05712  -0.00043   0.00000  -0.00016  -0.00016   2.05696
   R13        2.09730  -0.01353   0.00000  -0.00321  -0.00321   2.09409
   R14        4.53897  -0.06144   0.00000   0.00258   0.00258   4.54155
   R15        2.08395  -0.01149   0.00000  -0.00206  -0.00206   2.08189
   R16        2.09724  -0.00966   0.00000  -0.00182  -0.00182   2.09542
   R17        3.81438  -0.09621   0.00000   0.03506   0.03506   3.84944
   R18        2.10383  -0.01032   0.00000  -0.00235  -0.00235   2.10148
   R19        2.76132   0.01759   0.00000  -0.00125  -0.00125   2.76007
   R20        2.95085   0.04319   0.00000  -0.00495  -0.00495   2.94590
    A1        2.09390   0.00080   0.00000   0.00039   0.00039   2.09430
    A2        2.09577  -0.00026   0.00000   0.00050   0.00050   2.09627
    A3        2.09351  -0.00054   0.00000  -0.00089  -0.00089   2.09262
    A4        2.10542   0.00062   0.00000   0.00120   0.00120   2.10663
    A5        2.09096   0.00023   0.00000   0.00055   0.00056   2.09151
    A6        2.08678  -0.00085   0.00000  -0.00176  -0.00176   2.08502
    A7        2.08376  -0.00343   0.00000  -0.00251  -0.00250   2.08126
    A8        2.08377   0.00159   0.00000   0.00021   0.00021   2.08398
    A9        2.11565   0.00184   0.00000   0.00230   0.00229   2.11795
   A10        2.08490   0.00244   0.00000   0.00137   0.00137   2.08628
   A11        2.16047   0.00573   0.00000   0.00191   0.00190   2.16237
   A12        2.03781  -0.00817   0.00000  -0.00328  -0.00328   2.03454
   A13        2.10705  -0.00070   0.00000  -0.00015  -0.00015   2.10690
   A14        2.08996   0.00107   0.00000  -0.00013  -0.00013   2.08983
   A15        2.08618  -0.00037   0.00000   0.00028   0.00028   2.08646
   A16        2.09132   0.00028   0.00000  -0.00032  -0.00032   2.09100
   A17        2.09502   0.00009   0.00000  -0.00035  -0.00035   2.09467
   A18        2.09685  -0.00037   0.00000   0.00066   0.00067   2.09752
   A19        1.93785   0.00879   0.00000   0.00646   0.00646   1.94431
   A20        1.87506  -0.00620   0.00000   0.00418   0.00420   1.87927
   A21        1.98165   0.00682   0.00000   0.00120   0.00120   1.98285
   A22        1.91708  -0.00880   0.00000  -0.00962  -0.00963   1.90745
   A23        1.83286   0.00358   0.00000   0.00232   0.00228   1.83513
   A24        1.91941  -0.00456   0.00000  -0.00527  -0.00529   1.91412
   A25        1.94172   0.00938   0.00000   0.00776   0.00768   1.94940
   A26        2.03368  -0.00317   0.00000  -0.00265  -0.00264   2.03104
   A27        1.94231   0.01614   0.00000   0.01142   0.01134   1.95365
   A28        1.85882  -0.01100   0.00000  -0.01202  -0.01201   1.84681
   A29        1.90738   0.00355   0.00000   0.00904   0.00885   1.91623
   A30        1.76952  -0.01746   0.00000  -0.01524  -0.01523   1.75430
   A31        1.88342   0.00390   0.00000   0.00102   0.00099   1.88441
   A32        1.41854   0.00613   0.00000   0.00241   0.00242   1.42097
   A33        1.60865   0.03771   0.00000   0.01407   0.01407   1.62273
   A34        1.78163   0.00819   0.00000  -0.00146  -0.00147   1.78016
    D1       -0.00382  -0.00044   0.00000  -0.00059  -0.00059  -0.00441
    D2       -3.13766  -0.00135   0.00000  -0.00026  -0.00026  -3.13792
    D3        3.13656   0.00027   0.00000  -0.00054  -0.00054   3.13602
    D4        0.00272  -0.00065   0.00000  -0.00021  -0.00021   0.00251
    D5       -0.00053   0.00073   0.00000  -0.00020  -0.00020  -0.00073
    D6        3.14002   0.00043   0.00000  -0.00009  -0.00009   3.13993
    D7       -3.14091   0.00003   0.00000  -0.00026  -0.00026  -3.14117
    D8       -0.00036  -0.00027   0.00000  -0.00015  -0.00015  -0.00051
    D9        0.00621  -0.00097   0.00000   0.00088   0.00088   0.00709
   D10       -3.13235  -0.00289   0.00000  -0.00123  -0.00122  -3.13358
   D11        3.14007  -0.00005   0.00000   0.00056   0.00056   3.14063
   D12        0.00150  -0.00197   0.00000  -0.00154  -0.00154  -0.00004
   D13       -0.00426   0.00204   0.00000  -0.00038  -0.00038  -0.00464
   D14        3.13889   0.00170   0.00000  -0.00121  -0.00121   3.13768
   D15        3.13425   0.00400   0.00000   0.00176   0.00176   3.13601
   D16       -0.00578   0.00365   0.00000   0.00093   0.00093  -0.00485
   D17        1.70713   0.01121   0.00000   0.00628   0.00628   1.71341
   D18       -2.47951   0.00172   0.00000   0.00094   0.00095  -2.47856
   D19       -0.35324  -0.00406   0.00000  -0.00200  -0.00200  -0.35524
   D20       -1.43138   0.00926   0.00000   0.00414   0.00414  -1.42724
   D21        0.66517  -0.00022   0.00000  -0.00119  -0.00119   0.66398
   D22        2.79144  -0.00601   0.00000  -0.00414  -0.00414   2.78730
   D23       -0.00002  -0.00176   0.00000  -0.00040  -0.00040  -0.00042
   D24       -3.13825  -0.00069   0.00000  -0.00007  -0.00007  -3.13832
   D25        3.14012  -0.00143   0.00000   0.00038   0.00038   3.14050
   D26        0.00189  -0.00035   0.00000   0.00071   0.00070   0.00259
   D27       -2.18827   0.01481   0.00000   0.01082   0.01089  -2.17738
   D28       -0.05329   0.00523   0.00000  -0.00109  -0.00109  -0.05438
   D29        1.96335  -0.00771   0.00000  -0.01429  -0.01436   1.94899
   D30        0.95485   0.01447   0.00000   0.01001   0.01008   0.96493
   D31        3.08983   0.00489   0.00000  -0.00191  -0.00190   3.08792
   D32       -1.17672  -0.00806   0.00000  -0.01510  -0.01518  -1.19189
   D33        0.00245   0.00037   0.00000   0.00070   0.00070   0.00315
   D34       -3.13810   0.00067   0.00000   0.00058   0.00058  -3.13752
   D35        3.14068  -0.00069   0.00000   0.00037   0.00037   3.14106
   D36        0.00013  -0.00040   0.00000   0.00026   0.00026   0.00039
   D37       -2.98924  -0.02034   0.00000  -0.01607  -0.01606  -3.00531
   D38       -1.42780   0.02111   0.00000  -0.00049  -0.00048  -1.42828
   D39       -0.87956  -0.01858   0.00000  -0.01129  -0.01131  -0.89087
   D40        0.68189   0.02287   0.00000   0.00429   0.00427   0.68616
   D41        1.12931  -0.02187   0.00000  -0.01697  -0.01696   1.11235
   D42        2.69075   0.01958   0.00000  -0.00140  -0.00138   2.68937
   D43       -0.97964   0.01056   0.00000   0.00280   0.00281  -0.97683
   D44        1.19810   0.01177   0.00000   0.00142   0.00140   1.19950
   D45       -3.09070   0.00452   0.00000   0.00078   0.00081  -3.08989
   D46        1.23487   0.00731   0.00000  -0.00626  -0.00626   1.22860
   D47        3.11620   0.00558   0.00000  -0.00734  -0.00731   3.10889
         Item               Value     Threshold  Converged?
 Maximum Force            0.096206     0.000015     NO 
 RMS     Force            0.015204     0.000010     NO 
 Maximum Displacement     0.029897     0.000060     NO 
 RMS     Displacement     0.005743     0.000040     NO 
 Predicted change in Energy= 2.900729D-04
 GradGradGradGradGradGradGradGradGradGradGradGradGradGradGradGradGradGrad

                          Input orientation:                          
 ---------------------------------------------------------------------
 Center     Atomic      Atomic             Coordinates (Angstroms)
 Number     Number       Type             X           Y           Z
 ---------------------------------------------------------------------
      1          6           0       -4.595415   -1.532543    0.479838
      2          6           0       -3.206427   -1.601285    0.427143
      3          6           0       -2.428378   -0.425931    0.389566
      4          6           0       -3.071363    0.825082    0.414575
      5          6           0       -4.476823    0.881954    0.470832
      6          6           0       -5.235087   -0.285209    0.501396
      7          1           0       -0.587153   -0.417572   -0.715530
      8          1           0       -5.187316   -2.446843    0.503306
      9          1           0       -2.712265   -2.571783    0.407033
     10          6           0       -0.954715   -0.532457    0.323546
     11          6           0       -2.347641    2.138052    0.383897
     12          1           0       -4.978596    1.849509    0.487253
     13          1           0       -6.321512   -0.231039    0.541044
     14          1           0       -2.629261    2.781428    1.241975
     15         16           0       -0.034722    1.218100    1.689176
     16          8           0        1.410973    1.238339    1.482257
     17          8           0       -0.312575    2.050028    0.400427
     18          1           0       -2.519365    2.684897   -0.569068
     19          1           0       -0.567325   -1.507453    0.659751
 ---------------------------------------------------------------------
                    Distance matrix (angstroms):
                    1          2          3          4          5
     1  C    0.000000
     2  C    1.391686   0.000000
     3  C    2.434911   1.410047   0.000000
     4  C    2.808094   2.430156   1.406801   0.000000
     5  C    2.417424   2.789676   2.431726   1.407734   0.000000
     6  C    1.401958   2.419303   2.812458   2.433513   1.392181
     7  H    4.328767   3.093133   2.147420   2.998770   4.269162
     8  H    1.089422   2.155153   3.421806   3.897515   3.403930
     9  H    2.152109   1.089250   2.164620   3.415802   3.878921
    10  C    3.778796   2.494661   1.478982   2.516227   3.798354
    11  C    4.305225   3.836929   2.565260   1.499535   2.473612
    12  H    3.403697   3.879713   3.419178   2.166164   1.090050
    13  H    2.162653   3.405040   3.900951   3.419774   2.155589
    14  H    4.801766   4.495025   3.324772   2.169639   2.759737
    15  S    5.461544   4.427345   3.181417   3.316664   4.618400
    16  O    6.690242   5.522420   4.324857   4.626237   5.984658
    17  O    5.584250   4.659097   3.256857   3.018544   4.325542
    18  H    4.816325   4.453745   3.256456   2.175124   2.857207
    19  H    4.032184   2.650995   2.169380   3.430894   4.585753
                    6          7          8          9         10
     6  C    0.000000
     7  H    4.806424   0.000000
     8  H    2.162162   5.173489   0.000000
     9  H    3.406164   3.227518   2.480071   0.000000
    10  C    4.291194   1.108142   4.648881   2.693474   0.000000
    11  C    3.771385   3.292304   5.394374   4.723984   3.012557
    12  H    2.150118   5.086365   4.301448   4.968954   4.678908
    13  H    1.088497   5.873384   2.489500   4.303917   5.379653
    14  H    4.091827   4.270320   5.867205   5.418569   3.824846
    15  S    5.542071   2.960273   6.433297   4.814182   2.403286
    16  O    6.888643   3.400708   7.620782   5.716138   3.174084
    17  O    5.449280   2.722095   6.632913   5.207657   2.662233
    18  H    4.164440   3.657896   5.882405   5.350015   3.687310
    19  H    4.827728   1.754887   4.717122   2.407786   1.101690
                   11         12         13         14         15
    11  C    0.000000
    12  H    2.648748   0.000000
    13  H    4.629140   2.476893   0.000000
    14  H    1.108847   2.637698   4.816532   0.000000
    15  S    2.810633   5.126908   6.553010   3.061963   0.000000
    16  O    4.017842   6.495395   7.926934   4.331553   1.460568
    17  O    2.037036   4.671135   6.428870   2.571028   1.558903
    18  H    1.112056   2.803837   4.918470   1.816940   3.663961
    19  H    4.066365   5.546013   5.895251   4.794274   2.961760
                   16         17         18         19
    16  O    0.000000
    17  O    2.190847   0.000000
    18  H    4.663477   2.492569   0.000000
    19  H    3.482750   3.576005   4.785002   0.000000
 Symmetry turned off by external request.
 Stoichiometry    C8H8O2S
 Framework group  C1[X(C8H8O2S)]
 Deg. of freedom    51
 Full point group                 C1      NOp   1
 Rotational constants (GHZ):           2.4302888           0.5805173           0.4977880
 Standard basis: VSTO-6G (5D, 7F)
    57 basis functions,   348 primitive gaussians,    58 cartesian basis functions
    29 alpha electrons       29 beta electrons
       nuclear repulsion energy       331.1136589175 Hartrees.
 Integral buffers will be    131072 words long.
 Regular integral format.
 Two-electron integral symmetry is turned off.
 Do NDO integrals.
 One-electron integrals computed using PRISM.
 NBasis=    57 RedAO= F EigKep=  0.00D+00  NBF=    57
 NBsUse=    57 1.00D-04 EigRej=  0.00D+00 NBFU=    57
 Initial guess from the checkpoint file:  "C:\Users\al6323\OneDrive - Imperial College London\Desktop\TSR20251115\Exercise 3\DA reaction\TS_exo_Berny_opt+freq.chk"
 B after Tr=     0.000727   -0.003037   -0.002431
         Rot=    1.000000   -0.000052   -0.000137    0.000299 Ang=  -0.04 deg.
 Keep J ints in memory in canonical form, NReq=1859402.
 Overlap will be assumed to be unity.
 Requested convergence on RMS density matrix=1.00D-08 within  32 cycles.
 Requested convergence on MAX density matrix=1.00D-06.
 Requested convergence on             energy=1.00D-06.
 No special actions if energy rises.
 SCF Done:  E(RPM6) =  0.100752851500     A.U. after   18 cycles
            NFock= 17  Conv=0.67D-08     -V/T= 1.0009
 QCSCF skips out because SCF is already converged.
 Calling FoFJK, ICntrl=      2127 FMM=F ISym2X=0 I1Cent= 0 IOpClX= 0 NMat=1 NMatS=1 NMatT=0.
 -------------------------------------------------------------------
 Center     Atomic                   Forces (Hartrees/Bohr)
 Number     Number              X              Y              Z
 -------------------------------------------------------------------
      1        6           0.003625569   -0.001581868   -0.000102264
      2        6          -0.006635964   -0.002685825    0.001732345
      3        6           0.029153266    0.005842070    0.002282463
      4        6           0.021055622    0.006682553    0.001233532
      5        6          -0.001546193    0.003000281    0.000559688
      6        6          -0.000242977    0.003444284   -0.000000948
      7        1           0.003320413    0.011974842    0.016210533
      8        1          -0.000229167   -0.000096117   -0.000076335
      9        1           0.000427779    0.000275332   -0.000044360
     10        6          -0.001313499    0.008791444    0.020839822
     11        6           0.029110122   -0.004365649   -0.006482612
     12        1          -0.000552409   -0.000359069   -0.000000149
     13        1           0.000413147    0.000180693   -0.000086411
     14        1           0.021426506   -0.004133463   -0.001748645
     15       16          -0.006272264   -0.055824607   -0.046700848
     16        8           0.020868461   -0.018754406    0.027201916
     17        8          -0.134082828    0.039672806   -0.022351907
     18        1           0.020639479   -0.005807825    0.004441966
     19        1           0.000834936    0.013744524    0.003092214
 -------------------------------------------------------------------
 Cartesian Forces:  Max     0.134082828 RMS     0.023465444

 GradGradGradGradGradGradGradGradGradGradGradGradGradGradGradGradGradGrad
 Berny optimization.
 FormGI is forming the generalized inverse of G from B-inverse, IUseBI=4.
 Internal  Forces:  Max     0.093703297 RMS     0.014749682
 Search for a saddle point.
 Step number   3 out of a maximum of  111
 All quantities printed in internal units (Hartrees-Bohrs-Radians)
 Swapping is turned off.
 Update second derivatives using D2CorX and points    1    2    3
 ITU=  0  0  0
     Eigenvalues ---   -0.04496  -0.01081  -0.00158   0.00350   0.01036
     Eigenvalues ---    0.01137   0.01233   0.01534   0.01797   0.02128
     Eigenvalues ---    0.02457   0.02610   0.02779   0.02831   0.03008
     Eigenvalues ---    0.03305   0.03367   0.04163   0.05673   0.06357
     Eigenvalues ---    0.07058   0.08184   0.08926   0.10076   0.10911
     Eigenvalues ---    0.11042   0.11216   0.12310   0.13316   0.14951
     Eigenvalues ---    0.15018   0.15594   0.16123   0.23624   0.24181
     Eigenvalues ---    0.24217   0.24657   0.25525   0.26358   0.26481
     Eigenvalues ---    0.27601   0.28099   0.31936   0.34270   0.35722
     Eigenvalues ---    0.48145   0.52149   0.52725   0.53766   0.55964
     Eigenvalues ---    0.68590
 Eigenvectors required to have negative eigenvalues:
                          R17       R14       R20       D32       D46
   1                   -0.83023  -0.37882   0.14220   0.11578   0.11565
                          D37       D29       D41       A30       A20
   1                    0.11370   0.11071   0.10477   0.08574  -0.08459
 RFO step:  Lambda0=7.407691095D-02 Lambda=-7.33678905D-02.
 Linear search not attempted -- option 19 set.
 Maximum step size (   0.050) exceeded in Quadratic search.
    -- Step size scaled by   0.061
 Iteration  1 RMS(Cart)=  0.00591291 RMS(Int)=  0.00005437
 Iteration  2 RMS(Cart)=  0.00004680 RMS(Int)=  0.00002888
 Iteration  3 RMS(Cart)=  0.00000000 RMS(Int)=  0.00002888
 Variable       Old X    -DE/DX   Delta X   Delta X   Delta X     New X
                                 (Linear)    (Quad)   (Total)
    R1        2.62991  -0.00199   0.00000  -0.00206  -0.00206   2.62784
    R2        2.64932   0.00227   0.00000   0.00180   0.00180   2.65112
    R3        2.05871   0.00020   0.00000   0.00019   0.00019   2.05890
    R4        2.66460   0.00425   0.00000   0.00290   0.00290   2.66751
    R5        2.05838  -0.00005   0.00000   0.00011   0.00011   2.05850
    R6        2.65847   0.00226   0.00000   0.00041   0.00040   2.65887
    R7        2.79487  -0.02272   0.00000  -0.00631  -0.00631   2.78856
    R8        2.66023   0.00072   0.00000   0.00195   0.00195   2.66218
    R9        2.83371  -0.01888   0.00000  -0.00722  -0.00723   2.82648
   R10        2.63084  -0.00236   0.00000  -0.00184  -0.00184   2.62900
   R11        2.05990  -0.00006   0.00000  -0.00001  -0.00001   2.05988
   R12        2.05696  -0.00041   0.00000  -0.00016  -0.00016   2.05680
   R13        2.09409  -0.01286   0.00000  -0.00312  -0.00312   2.09096
   R14        4.54155  -0.06062   0.00000   0.00136   0.00137   4.54292
   R15        2.08189  -0.01093   0.00000  -0.00199  -0.00199   2.07991
   R16        2.09542  -0.00919   0.00000  -0.00169  -0.00169   2.09373
   R17        3.84944  -0.09370   0.00000   0.03496   0.03496   3.88440
   R18        2.10148  -0.00985   0.00000  -0.00227  -0.00227   2.09921
   R19        2.76007   0.01654   0.00000  -0.00129  -0.00129   2.75879
   R20        2.94590   0.04123   0.00000  -0.00531  -0.00531   2.94059
    A1        2.09430   0.00076   0.00000   0.00039   0.00039   2.09468
    A2        2.09627  -0.00024   0.00000   0.00053   0.00053   2.09680
    A3        2.09262  -0.00052   0.00000  -0.00091  -0.00091   2.09171
    A4        2.10663   0.00059   0.00000   0.00123   0.00122   2.10785
    A5        2.09151   0.00024   0.00000   0.00057   0.00057   2.09208
    A6        2.08502  -0.00082   0.00000  -0.00180  -0.00180   2.08322
    A7        2.08126  -0.00324   0.00000  -0.00252  -0.00251   2.07874
    A8        2.08398   0.00158   0.00000   0.00016   0.00017   2.08415
    A9        2.11795   0.00166   0.00000   0.00236   0.00235   2.12029
   A10        2.08628   0.00229   0.00000   0.00132   0.00133   2.08760
   A11        2.16237   0.00548   0.00000   0.00182   0.00181   2.16418
   A12        2.03454  -0.00777   0.00000  -0.00314  -0.00313   2.03140
   A13        2.10690  -0.00066   0.00000  -0.00011  -0.00012   2.10678
   A14        2.08983   0.00101   0.00000  -0.00018  -0.00018   2.08965
   A15        2.08646  -0.00035   0.00000   0.00029   0.00029   2.08675
   A16        2.09100   0.00027   0.00000  -0.00031  -0.00031   2.09069
   A17        2.09467   0.00007   0.00000  -0.00037  -0.00037   2.09430
   A18        2.09752  -0.00034   0.00000   0.00069   0.00069   2.09820
   A19        1.94431   0.00846   0.00000   0.00644   0.00644   1.95075
   A20        1.87927  -0.00603   0.00000   0.00444   0.00445   1.88372
   A21        1.98285   0.00668   0.00000   0.00119   0.00119   1.98404
   A22        1.90745  -0.00862   0.00000  -0.00990  -0.00992   1.89753
   A23        1.83513   0.00340   0.00000   0.00234   0.00230   1.83743
   A24        1.91412  -0.00442   0.00000  -0.00537  -0.00539   1.90873
   A25        1.94940   0.00880   0.00000   0.00741   0.00732   1.95672
   A26        2.03104  -0.00297   0.00000  -0.00273  -0.00272   2.02831
   A27        1.95365   0.01544   0.00000   0.01149   0.01140   1.96505
   A28        1.84681  -0.01068   0.00000  -0.01182  -0.01181   1.83500
   A29        1.91623   0.00319   0.00000   0.00873   0.00853   1.92476
   A30        1.75430  -0.01693   0.00000  -0.01541  -0.01539   1.73891
   A31        1.88441   0.00327   0.00000   0.00071   0.00068   1.88509
   A32        1.42097   0.00618   0.00000   0.00273   0.00274   1.42371
   A33        1.62273   0.03618   0.00000   0.01442   0.01442   1.63715
   A34        1.78016   0.00783   0.00000  -0.00087  -0.00088   1.77928
    D1       -0.00441  -0.00043   0.00000  -0.00063  -0.00063  -0.00504
    D2       -3.13792  -0.00130   0.00000  -0.00028  -0.00028  -3.13820
    D3        3.13602   0.00025   0.00000  -0.00058  -0.00058   3.13544
    D4        0.00251  -0.00062   0.00000  -0.00023  -0.00023   0.00229
    D5       -0.00073   0.00070   0.00000  -0.00021  -0.00021  -0.00094
    D6        3.13993   0.00041   0.00000  -0.00010  -0.00010   3.13983
    D7       -3.14117   0.00003   0.00000  -0.00026  -0.00026  -3.14143
    D8       -0.00051  -0.00026   0.00000  -0.00015  -0.00015  -0.00066
    D9        0.00709  -0.00093   0.00000   0.00088   0.00087   0.00796
   D10       -3.13358  -0.00279   0.00000  -0.00126  -0.00126  -3.13484
   D11        3.14063  -0.00006   0.00000   0.00053   0.00053   3.14116
   D12       -0.00004  -0.00192   0.00000  -0.00160  -0.00160  -0.00164
   D13       -0.00464   0.00197   0.00000  -0.00030  -0.00030  -0.00494
   D14        3.13768   0.00159   0.00000  -0.00127  -0.00127   3.13642
   D15        3.13601   0.00387   0.00000   0.00188   0.00188   3.13789
   D16       -0.00485   0.00349   0.00000   0.00091   0.00091  -0.00394
   D17        1.71341   0.01100   0.00000   0.00669   0.00670   1.72011
   D18       -2.47856   0.00162   0.00000   0.00118   0.00118  -2.47737
   D19       -0.35524  -0.00395   0.00000  -0.00171  -0.00171  -0.35695
   D20       -1.42724   0.00910   0.00000   0.00451   0.00451  -1.42272
   D21        0.66398  -0.00028   0.00000  -0.00100  -0.00100   0.66298
   D22        2.78730  -0.00585   0.00000  -0.00389  -0.00390   2.78340
   D23       -0.00042  -0.00171   0.00000  -0.00052  -0.00052  -0.00094
   D24       -3.13832  -0.00067   0.00000  -0.00013  -0.00013  -3.13845
   D25        3.14050  -0.00135   0.00000   0.00038   0.00038   3.14087
   D26        0.00259  -0.00032   0.00000   0.00077   0.00077   0.00337
   D27       -2.17738   0.01455   0.00000   0.01064   0.01071  -2.16667
   D28       -0.05438   0.00504   0.00000  -0.00139  -0.00138  -0.05576
   D29        1.94899  -0.00771   0.00000  -0.01489  -0.01497   1.93402
   D30        0.96493   0.01418   0.00000   0.00970   0.00977   0.97469
   D31        3.08792   0.00467   0.00000  -0.00233  -0.00232   3.08560
   D32       -1.19189  -0.00808   0.00000  -0.01584  -0.01591  -1.20780
   D33        0.00315   0.00037   0.00000   0.00078   0.00078   0.00393
   D34       -3.13752   0.00066   0.00000   0.00068   0.00068  -3.13684
   D35        3.14106  -0.00066   0.00000   0.00039   0.00039   3.14144
   D36        0.00039  -0.00037   0.00000   0.00028   0.00028   0.00067
   D37       -3.00531  -0.01956   0.00000  -0.01613  -0.01612  -3.02143
   D38       -1.42828   0.02036   0.00000  -0.00004  -0.00003  -1.42832
   D39       -0.89087  -0.01798   0.00000  -0.01145  -0.01147  -0.90234
   D40        0.68616   0.02194   0.00000   0.00463   0.00462   0.69077
   D41        1.11235  -0.02114   0.00000  -0.01710  -0.01709   1.09526
   D42        2.68937   0.01879   0.00000  -0.00102  -0.00100   2.68838
   D43       -0.97683   0.01046   0.00000   0.00362   0.00363  -0.97320
   D44        1.19950   0.01143   0.00000   0.00200   0.00198   1.20148
   D45       -3.08989   0.00470   0.00000   0.00154   0.00157  -3.08832
   D46        1.22860   0.00707   0.00000  -0.00660  -0.00661   1.22200
   D47        3.10889   0.00528   0.00000  -0.00790  -0.00787   3.10102
         Item               Value     Threshold  Converged?
 Maximum Force            0.093703     0.000015     NO 
 RMS     Force            0.014750     0.000010     NO 
 Maximum Displacement     0.031939     0.000060     NO 
 RMS     Displacement     0.005905     0.000040     NO 
 Predicted change in Energy= 1.747735D-04
 GradGradGradGradGradGradGradGradGradGradGradGradGradGradGradGradGradGrad

                          Input orientation:                          
 ---------------------------------------------------------------------
 Center     Atomic      Atomic             Coordinates (Angstroms)
 Number     Number       Type             X           Y           Z
[...]
 022767,-0.3789685,-0.4752014,-0.177074,-0.4086739,-0.0576943,-0.873294
 ,-0.029656,0.4387107,0.0907772,0.1073138,0.1450838,-0.0377508,0.188783
 7,0.332257,0.0157309,0.1371247,-0.1020524,0.0207644,-0.1070342,0.21784
 31,-0.0019811,0.0116737,0.0166443,0.1288585,0.3411529,0.0757489,-0.025
 0002,-0.0147871,0.0848444,0.0091593,-0.0459038,-0.0112603,0.176677,0.1
 175554,-0.0902198,0.0093718,-0.052378,0.3234269,-0.0248467,-0.0151652,
 0.066448,0.1172575,2.0256107,-0.1677898,0.3279359,0.4934566,1.1559735,
 0.446785,0.0045042,0.0229475,0.9920827,-1.4981729,0.0397049,-0.3955596
 ,-0.1251501,-0.5929939,0.0383207,0.2704795,0.0133691,-0.4171784,-0.528
 3417,-0.0908389,0.2064676,-0.0595045,-0.6146747,-0.2853539,-0.0394911,
 -0.2724761,-0.4481383,0.126176,0.1336146,-0.0730024,0.0247752,0.100561
 7,-0.0219023,-0.0148206,-0.1342757,0.1615442,0.2092136,-0.0951095,-0.0
 251388,-0.1140819,0.271824,0.0492324,0.0352933,-0.0157236,0.2031506|Po
 lar=162.7897365,4.2090065,114.4212772,6.5590602,-2.041784,44.9024829|H
 yperPolar=-198.0148001,156.235306,103.6472206,71.1376837,276.2871108,1
 38.7676173,3.398437,263.7436169,122.4435218,238.3252931|PG=C01 [X(C8H8
 O2S1)]|NImag=1||0.76486889,-0.02945746,0.54577985,-0.15263020,-0.03377
 156,0.18190502,-0.48025374,-0.01499156,0.10585375,0.77716831,0.0410984
 7,-0.07918795,-0.00816144,-0.01373381,0.52202534,0.09921709,0.00649767
 ,-0.08479600,-0.15658425,-0.03851813,0.17887969,-0.06280592,-0.0131849
 0,0.01853351,-0.08578097,-0.07821653,0.01013000,0.76605838,-0.04379763
 ,0.01101507,0.01053536,-0.06810689,-0.20972496,0.03511050,-0.01029787,
 0.59502823,0.02049424,0.00288403,-0.00036800,0.01409095,0.03914066,-0.
 07776740,-0.11097587,-0.04754220,0.19058702,-0.02101032,0.01297070,0.0
 0288515,0.02576194,0.00544819,-0.00450708,-0.12661238,0.09280684,0.006
 51808,0.63912900,-0.01385660,0.00426658,0.00238616,0.01021624,-0.03924
 420,0.00055129,0.03907992,-0.20311579,0.00538611,0.07121017,0.71860812
 ,0.00533739,-0.00319199,-0.00460897,-0.00647022,0.00441985,0.00798301,
 0.01099864,-0.00448263,-0.07018026,-0.11168134,-0.04154006,0.17775825,
 0.03844728,-0.01888632,-0.00613656,-0.02517100,-0.00863211,0.00757737,
 -0.01645031,0.03634936,0.00200058,-0.24487795,0.02154660,0.04990195,0.
 58140661,0.01972769,-0.07472679,0.00338909,-0.01259387,-0.01270190,0.0
 0480192,0.03559200,0.00283825,-0.00948875,0.02354872,-0.04876844,-0.00
 811735,0.11415724,0.72739179,-0.01023944,0.01274137,0.00704366,0.00734
 342,0.00352786,-0.00286321,0.00161459,-0.00721862,0.00478113,0.0455783
 0,-0.01190903,-0.07724562,-0.12616772,-0.08567162,0.18136413,-0.119121
 98,0.11528896,0.00138506,-0.03964492,0.03281815,0.00837184,-0.00238323
 ,-0.00134086,0.00011942,-0.03784135,-0.02962354,0.01388653,-0.17590698
 ,-0.20293899,0.05038486,0.57721569,0.05411367,-0.21969809,0.00181202,0
 .06756212,0.00810759,-0.01774587,-0.02245632,-0.01953508,0.00638969,-0
 .05554894,-0.02232889,0.01614147,-0.14884270,-0.38613279,0.07091145,0.
 08714269,0.73427240,0.00729604,-0.01313820,-0.06764337,0.00515735,-0.0
 0813961,0.00647715,0.00133644,0.00184482,-0.00436667,0.01747091,0.0102
 7548,0.00146631,0.04479880,0.08491212,-0.07983665,-0.12145496,-0.08388
 594,0.17416943,-0.00087717,0.00005149,0.00010799,-0.00150822,0.0010879
 8,0.00133757,-0.03218269,-0.02109951,0.01769545,-0.00169746,-0.0017119
 5,-0.00035489,0.00052953,0.00002528,-0.00031334,0.00013507,-0.00060138
 ,0.00005085,0.10518750,-0.00145416,0.00141053,0.00021368,0.00219726,0.
 00146462,0.00163543,-0.01422493,0.00220387,0.00389429,-0.00162199,-0.0
 0426691,-0.00050613,0.00161224,0.00062084,-0.00040026,-0.00011905,-0.0
 0169588,0.00026250,0.07888251,0.14113572,-0.00166498,0.00104882,0.0003
 8039,0.00260953,0.00185124,0.00431873,0.00216378,0.00735389,0.00093416
 ,-0.00137482,-0.00540708,-0.00163244,0.00138455,0.00074022,-0.00049088
 ,0.00012743,-0.00170531,0.00026689,-0.06482278,-0.08149493,0.09288110,
 -0.08394464,-0.07928753,0.01812681,-0.03047183,-0.02501878,0.01168286,
 -0.00237668,-0.00003871,0.00259067,0.00005963,0.00039887,-0.00013158,-
 0.00094180,0.00147139,0.00064700,0.00651281,0.00889580,-0.00074851,-0.
 00014620,-0.00013342,-0.00014963,0.11174329,-0.07956993,-0.16097159,0.
 03168078,-0.01075657,-0.00095864,0.00337514,-0.00005263,-0.00097077,0.
 00098453,0.00008912,0.00067448,-0.00018852,0.00161966,-0.00203854,0.00
 001600,-0.00493109,-0.03779847,0.00577626,-0.00007824,-0.00017723,-0.0
 0006137,0.09314227,0.20168321,0.01814890,0.03150323,-0.05094994,0.0101
 8672,0.00694675,0.00302985,0.00292678,0.00092235,0.00767153,-0.0001350
 5,0.00010131,-0.00008768,0.00054642,-0.00004362,0.00197906,0.00065049,
 0.00244528,0.00678266,-0.00004663,-0.00017897,-0.00048274,-0.03135569,
 -0.04114725,0.03539150,-0.03043204,0.02808401,0.00624575,-0.07914021,0
 .07893264,0.00161626,0.00789741,-0.00991708,0.00084106,-0.00100012,-0.
 00112455,0.00089207,0.00029432,-0.00016945,-0.00002438,-0.00232257,-0.
 00023518,0.00257054,0.00006004,0.00004101,0.00000126,-0.00088874,0.000
 05116,-0.00038555,0.10767241,0.01529740,-0.00515919,-0.00267256,0.0790
 3691,-0.17415932,-0.00643929,0.00230869,-0.03738358,0.00419490,-0.0010
 1845,-0.00127227,0.00083204,-0.00086838,0.00003305,0.00016699,0.000221
 08,0.00111146,0.00063813,0.00009259,0.00000709,0.00006378,-0.00008746,
 0.00098915,-0.00030813,-0.09431953,0.21793099,0.00746359,-0.00570532,0
 .00471018,0.00142767,-0.00657379,-0.04067572,0.00029985,0.00709489,0.0
 0618562,0.00041606,0.00114009,0.00151385,0.00028076,0.00004998,-0.0000
 4374,0.00249143,0.00050701,0.00713351,0.00001755,-0.00000284,0.0000285
 7,-0.00034770,-0.00034585,-0.00221835,-0.01169361,0.00364598,0.0250031
 5,0.01715426,-0.01295826,-0.00257353,-0.05871721,-0.03584224,0.0208638
 6,-0.42091146,0.00963557,0.05373707,-0.02469322,0.07191100,-0.00165800
 ,-0.01212090,-0.00467992,0.00517029,-0.00170400,0.01623339,-0.00082171
 ,-0.07750344,-0.06128716,0.06104187,-0.00000070,0.00077150,-0.00029693
 ,-0.00137360,-0.00026085,-0.00020881,0.68032622,0.00452568,-0.00756462
 ,-0.00020091,-0.03637170,-0.00769535,0.00906837,0.04357945,-0.07021309
 ,-0.00067790,0.03616225,0.00903983,-0.00672724,-0.00486252,-0.00532532
 ,0.00201167,0.00033665,0.00708542,-0.00069929,-0.06403682,-0.12257043,
 0.07426199,-0.00021013,0.00052095,0.00000328,-0.00081305,-0.00128071,0
 .00025664,-0.06229925,0.39909309,0.00665047,-0.00314630,0.00015815,0.0
 0770472,0.00040631,0.00925247,0.10143875,-0.00483027,-0.07159377,0.007
 68608,0.02041603,0.00409922,-0.00498793,-0.00235412,0.00424982,-0.0005
 6255,0.00661009,-0.00011527,0.04797593,0.06778324,-0.07880157,0.000088
 94,0.00005625,-0.00077469,-0.00002398,0.00014562,-0.00101430,-0.155396
 71,-0.09137092,0.16221943,0.00991828,-0.00722709,-0.00167175,-0.008764
 45,-0.00382353,0.00427373,0.04719415,-0.01525469,-0.00846484,-0.142996
 00,-0.12501336,0.02342438,-0.05372096,-0.03782233,0.01821620,-0.003052
 21,0.01542323,-0.00041834,-0.00008204,0.00422791,0.00399300,-0.0001588
 1,-0.00026360,-0.00009253,0.00021055,0.00012897,-0.00016782,-0.0323745
 4,-0.00796862,-0.01864044,0.41047453,0.00895384,-0.00657436,-0.0013866
 6,-0.00561339,-0.00713213,0.00378897,0.02497152,-0.06354976,-0.0016286
 5,-0.16791371,-0.35451077,0.03778671,-0.03921503,-0.01455102,0.0140417
 6,0.00072336,0.01421602,-0.00140984,0.00179247,0.00097341,0.00177942,-
 0.00013658,-0.00012715,-0.00012967,-0.00031814,-0.00057319,-0.00000077
 ,-0.01732640,-0.01286450,-0.00883614,0.11411910,0.66235408,0.00600164,
 -0.00505374,-0.00085198,-0.00491605,-0.00339065,0.00490671,0.02239051,
 -0.00926814,0.00179877,0.04397883,0.08364795,-0.06679472,0.00174966,0.
 00547525,0.00433591,0.00198051,0.00826725,0.00048056,0.00147687,0.0014
 6989,0.00268929,-0.00013241,-0.00011293,-0.00037350,0.00001984,-0.0003
 4290,-0.00020411,-0.01895646,-0.00940506,-0.01441022,-0.16500391,-0.04
 534459,0.16674911,-0.00068916,-0.00061137,0.00237266,0.00070457,0.0001
 4714,-0.00022396,-0.00281163,-0.00132703,0.00151348,-0.02782430,0.0245
 3272,0.00677904,-0.07469292,0.07675985,0.00083937,0.00710591,-0.009705
 03,0.00084728,0.00001460,-0.00008047,-0.00003812,0.00016996,-0.0001919
 4,-0.00015759,-0.00011068,0.00011947,-0.00022736,0.00003775,0.00083901
 ,-0.00003475,-0.00217332,0.00017828,0.00037661,0.10048655,-0.00069617,
 -0.00251035,0.00126386,-0.00080622,0.00015833,0.00018029,0.00015057,0.
 00087135,0.00007023,0.01101889,-0.00306245,-0.00200050,0.07601465,-0.1
 7729202,-0.00655147,0.00481100,-0.04168567,0.00358630,0.00005522,0.000
 07472,-0.00001326,0.00016754,-0.00038528,-0.00007219,0.00003606,-0.000
 18958,-0.00008280,-0.00049561,-0.00020410,-0.00009957,0.00003999,0.000
 72447,0.00038645,-0.08917705,0.22378947,0.00210161,0.00141293,0.007423
 52,0.00004172,0.00012854,-0.00007950,0.00141990,-0.00007406,0.00169312
 ,0.00817010,-0.00465750,0.00486003,0.00066173,-0.00681460,-0.04186553,
 -0.00047755,0.00706092,0.00604031,-0.00002514,-0.00002165,-0.00002073,
 -0.00020167,0.00003776,-0.00050376,-0.00020602,-0.00010689,-0.00086008
 ,-0.00017103,-0.00024680,-0.00026770,0.00049948,-0.00047111,-0.0004094
 0,-0.01156400,0.00346062,0.02553601,-0.02392277,0.01415728,0.00622808,
 0.00014330,0.00121548,0.00029418,-0.00024718,0.00005802,-0.00001372,0.
 00064436,-0.00040543,0.00196839,-0.02636610,-0.01536589,0.00955834,-0.
 20884245,-0.00227897,0.04307337,-0.00005575,0.00001060,0.00002143,0.00
 040767,0.00029348,-0.00016139,-0.00022937,0.00009251,-0.00002322,0.000
 43785,-0.00010760,-0.00002063,-0.00036553,-0.00030192,-0.00036972,0.00
 041098,-0.00074138,-0.00061209,0.25789642,0.02743504,-0.00734953,-0.00
 556357,0.00108866,-0.00274673,0.00018975,0.00009615,-0.00003969,0.0000
 1182,-0.00084441,-0.00201119,0.00111553,-0.02855015,-0.00666475,0.0085
 5159,-0.00260996,-0.03405157,-0.00003035,0.00001777,0.00001314,0.00000
 651,0.00088116,-0.00035194,-0.00020817,0.00042171,0.00003584,-0.000124
 55,-0.00011806,-0.00000594,-0.00009059,-0.00048711,-0.00005814,0.00018
 910,-0.00085461,-0.00035735,0.00002351,0.00355698,0.05359302,0.0048570
 8,-0.00214712,0.00534288,0.00030807,0.00015823,0.00166541,0.00020409,-
 0.00019561,0.00017116,0.00187770,0.00142588,0.00703069,0.01105958,0.00
 525740,0.00197349,0.04298290,-0.00029205,-0.05173608,0.00003747,-0.000
 00636,0.00002208,-0.00022184,-0.00004995,-0.00006539,-0.00006102,-0.00
 004818,-0.00026186,-0.00032166,-0.00003257,-0.00040761,0.00019590,-0.0
 0010831,0.00006894,-0.00061049,-0.00002247,-0.00211217,-0.06021548,-0.
 00409169,0.03853047,0.00001878,0.00004334,-0.00007413,0.00007040,-0.00
 048983,-0.00026275,-0.00099445,-0.00017591,0.00318439,0.00800629,-0.01
 228147,-0.00057897,-0.00015148,-0.00124861,-0.00116524,-0.00019869,0.0
 0000895,0.00002823,-0.00001007,-0.00030162,0.00007823,0.00001041,0.000
 03990,0.00002936,-0.00002560,-0.00003340,0.00012731,0.00053098,0.00044
 906,0.00001265,-0.06994438,0.07332409,0.01579582,-0.00059258,-0.000381
 27,0.00019226,0.00008817,-0.00001538,0.00008889,0.07813393,0.00067040,
 -0.00062164,-0.00009298,-0.00025873,-0.00053021,0.00036347,0.00000934,
 -0.00259623,-0.00046319,0.00477337,-0.03859797,-0.00427613,-0.00203990
 ,-0.00153823,0.00068844,0.00055371,0.00100044,-0.00017680,0.00019616,0
 .00027711,0.00005552,-0.00003101,-0.00006126,-0.00001563,-0.00002875,-
 0.00014863,-0.00001271,-0.00160524,-0.00028924,-0.00062442,0.06939651,
 -0.18036146,-0.03638364,-0.00065718,0.00012651,0.00007844,-0.00018700,
 0.00006079,0.00001493,-0.07808840,0.22477335,0.00058606,-0.00051364,-0
 .00020233,-0.00048118,-0.00050666,-0.00047574,0.00255713,0.00025757,0.
 00596287,0.00258652,0.00363983,0.00586473,-0.00192464,-0.00020335,-0.0
 0206819,0.00013700,0.00093653,-0.00017205,0.00018958,0.00019470,0.0003
 3643,0.00001488,-0.00000265,0.00006321,0.00003058,-0.00001089,0.000221
 20,-0.00131809,-0.00054634,-0.00098899,0.01468687,-0.03929674,-0.04914
 862,0.00015620,0.00016727,0.00030388,0.00002838,0.00004058,0.00026543,
 -0.02546153,0.04176652,0.03632353,0.00063622,-0.00056233,-0.00008336,0
 .00013699,0.00121445,-0.00035405,-0.01005331,-0.00627819,-0.00655510,0
 .00238707,0.00616180,-0.00070089,-0.00285890,-0.00111062,0.00096355,0.
 00127905,0.00201574,-0.00039079,0.00469356,0.00101220,-0.00255081,-0.0
 0023136,-0.00053896,0.00006770,0.00036112,-0.00066478,-0.00009316,-0.0
 0742809,0.00349232,0.00411452,-0.01129210,0.00072129,-0.01138992,-0.00
 017820,0.00034889,-0.00019278,-0.00074283,0.00003662,0.00010458,-0.000
 41294,0.00068837,-0.00114117,0.65556072,-0.00900307,0.00776966,0.00137
 420,0.01060991,0.00619189,-0.00479108,-0.04331997,0.00730376,0.0018621
 5,-0.01188957,-0.03305024,0.00268226,0.01021154,0.00399410,-0.00388814
 ,-0.00004264,-0.01094817,0.00084074,-0.00109050,-0.00016593,-0.0097692
 2,-0.00025490,-0.00056332,0.00030534,-0.00019583,-0.00004505,-0.000113
 18,0.03885867,0.01037446,0.02997779,0.03259988,0.01028957,0.02413804,-
 0.00022971,0.00050251,0.00027361,-0.00000862,0.00009541,0.00012634,-0.
 00001294,0.00165092,0.00255387,-0.23669104,0.24654475,-0.00457265,0.00
 288256,0.00088890,0.00578839,0.00406123,-0.00355444,-0.03301136,0.0009
 3257,-0.00192725,-0.00312111,-0.01579383,0.00043778,0.00310291,0.00157
 617,-0.00162562,0.00087903,-0.00451277,-0.00001096,-0.00120348,-0.0028
 0652,-0.01994194,0.00006878,-0.00003809,0.00016417,-0.00000897,-0.0000
 8805,0.00026355,0.02092185,0.00907152,0.00081445,0.00961391,0.01014806
 ,0.00871581,0.00004869,0.00006602,0.00009767,-0.00012577,0.00003923,0.
 00016706,-0.00051012,0.00021898,-0.00078785,-0.00345729,-0.04048072,0.
 07413609,0.00113264,-0.00088846,-0.00011588,-0.00195221,-0.00188197,0.
 00120905,0.00903279,-0.00022231,-0.00198203,-0.00113461,0.00335415,-0.
 00148617,0.00028728,-0.00022521,0.00008405,-0.00105632,0.00063138,0.00
 025456,-0.00145495,-0.00046267,0.00202790,0.00018604,0.00047018,-0.000
 16250,-0.00029204,0.00052024,-0.00005788,-0.01286115,-0.00836221,-0.01
 279070,-0.00283670,-0.00106659,-0.00130514,0.00018446,-0.00029988,0.00
 000542,0.00059195,-0.00005710,-0.00017883,0.00018094,-0.00063166,0.000
 01651,-0.46946734,0.05889940,0.05032113,0.49804912,0.00024050,-0.00037
 208,0.00000628,-0.00050291,-0.00005458,0.00003402,0.00005552,0.0000571
 5,0.00002217,0.00043020,0.00028170,-0.00003353,-0.00037683,-0.00001425
 ,0.00013944,0.00011910,0.00035632,-0.00006333,0.00010004,-0.00013432,0
 .00033265,0.00004822,0.00005819,-0.00001542,0.00011651,-0.00007396,0.0
 0007193,-0.00406409,0.00010179,-0.00239600,0.00044424,0.00005472,0.000
 79686,0.00003461,-0.00009489,-0.00001475,-0.00000955,-0.00000976,0.000
 00506,-0.00001254,-0.00024994,-0.00024042,0.02467562,-0.01127125,-0.00
 343385,-0.04594950,0.01964390,-0.00027640,0.00038541,0.00003041,0.0002
 4077,0.00029051,0.00009108,-0.00145329,-0.00012872,0.00002477,-0.00060
 140,-0.00089166,0.00041521,0.00037095,0.00012890,-0.00000751,0.0000193
 4,-0.00034188,0.00005305,0.00087658,-0.00009418,-0.00078304,-0.0000653
 4,-0.00011458,0.00000049,0.00007367,-0.00007278,-0.00007924,-0.0040569
 0,-0.00013348,0.00291517,0.00064229,-0.00022655,0.00059700,-0.00004538
 ,0.00006915,-0.00001372,-0.00006053,0.00000913,-0.00001102,-0.00004823
 ,0.00023891,0.00016070,0.05097735,-0.01082692,-0.01804650,-0.04340153,
 0.00566285,0.01326447,-0.00912580,0.00721368,0.00146492,0.00898691,0.0
 0538497,-0.00409964,-0.03551582,0.01086466,0.00499683,-0.02354107,-0.0
 4889939,-0.00289298,0.01230622,0.00529697,-0.00558402,-0.00020277,-0.0
 1229881,0.00117597,-0.00164478,-0.00248156,-0.00443315,0.00007010,0.00
 004646,0.00014346,-0.00011075,0.00023360,0.00011809,0.03284574,0.01546
 938,0.02247527,0.03849657,0.02021348,0.03136632,0.00004023,-0.00008672
 ,0.00031238,0.00040183,0.00004908,0.00010738,-0.00246391,0.00184873,-0
 .00083306,-0.16648077,0.15041856,-0.04163821,-0.01690139,0.02454045,-0
 .00456799,0.16511704,0.00572156,-0.00527122,-0.00079630,-0.00648116,-0
 .00368061,0.00267855,0.02205097,-0.00841289,-0.00502639,0.00732616,0.0
 2450627,-0.00511825,-0.00807071,-0.00296250,0.00284942,0.00020190,0.00
 761896,-0.00062336,0.00069463,0.00115413,0.00383556,0.00016640,0.00037
 301,-0.00018393,0.00001624,0.00001538,0.00002087,-0.02000182,-0.017604
 04,-0.02107927,-0.02588232,-0.01331456,-0.02104420,0.00011237,-0.00038
 753,-0.00013204,-0.00004511,-0.00006346,-0.00004136,0.00168322,-0.0022
 4901,0.00062233,0.20545561,-0.23414414,0.04081731,-0.00464232,-0.00792
 532,0.00588729,-0.17804803,0.26256108,-0.00715435,0.00581831,0.0010844
 0,0.00650407,0.00392317,-0.00280977,-0.02685063,0.00885162,0.00250975,
 -0.02205766,-0.04194743,0.00059831,0.01140734,0.00450963,-0.00428503,-
 0.00060693,-0.01004164,0.00122771,-0.00112939,-0.00171545,-0.00309816,
 0.00004164,0.00007675,0.00005463,-0.00012141,0.00021494,-0.00006707,0.
 02397509,0.00396177,0.01771122,0.03046112,0.01764696,0.01036470,-0.000
 05864,-0.00028020,0.00000396,0.00042352,-0.00002162,-0.00012104,-0.001
 09669,0.00136092,0.00099408,-0.02945621,0.01571279,-0.03423638,0.00656
 609,-0.00146582,0.00208330,0.01181977,-0.00846798,0.02821416,0.0002840
 2,-0.00039706,0.00008847,-0.00040545,0.00008034,0.00014905,0.00029020,
 -0.00046859,-0.00108848,-0.01994054,-0.01439657,0.01087667,-0.00019289
 ,-0.00105239,0.00321802,0.00005830,0.00039034,-0.00021769,0.00054516,-
 0.00025507,0.00011937,0.00000237,-0.00000985,-0.00000568,0.00003615,-0
 .00006501,-0.00005130,-0.00081221,-0.00013743,-0.00001543,-0.17926551,
 -0.01322255,0.07653498,0.00005364,-0.00001589,-0.00003324,-0.00021774,
 -0.00005042,-0.00023125,-0.01214763,0.00525480,0.01017350,0.00081231,0
 .00241251,-0.00305548,-0.00046557,-0.00063361,0.00065267,-0.00164488,-
 0.00029934,-0.00173858,0.21286140,-0.00013517,0.00025734,-0.00001132,0
 .00022026,0.00021455,-0.00027760,-0.00113627,-0.00143440,0.00072391,-0
 .02760076,-0.00771012,0.01153299,-0.00089428,-0.00214635,-0.00001601,-
 0.00054674,-0.00008431,0.00008700,0.00048307,0.00038208,-0.00040845,-0
 .00001392,-0.00004285,0.00003125,0.00002308,0.00003102,0.00001244,0.00
 024597,-0.00194286,0.00042562,-0.01255078,-0.03486852,0.00625847,0.000
 08928,-0.00004998,-0.00000896,-0.00000337,-0.00006920,0.00005234,0.017
 41390,-0.00045409,-0.00863855,0.00137726,0.00000789,0.00188407,-0.0004
 0704,-0.00012008,0.00005104,0.00032517,-0.00031656,0.00190560,0.023072
 28,0.04830900,-0.00146762,0.00124088,0.00048062,0.00125658,0.00081542,
 -0.00057652,-0.00568838,0.00262019,-0.00117718,0.00557093,-0.00532579,
 0.00295078,0.00414225,0.00157011,0.00485818,-0.00020877,-0.00229177,-0
 .00007181,-0.00045142,-0.00008703,-0.00019146,0.00003039,0.00005460,0.
 00002118,-0.00003429,0.00006808,-0.00004206,0.00413533,0.00201285,0.00
 233198,0.08702665,0.01305943,-0.06949538,0.00000266,-0.00014483,-0.000
 03132,-0.00002740,-0.00005764,-0.00056376,0.00991559,-0.00289636,0.003
 62704,-0.00078709,-0.00221357,-0.00320097,0.00081052,-0.00008068,-0.00
 039424,-0.00854585,0.00499088,-0.01804048,-0.09556953,-0.01351538,0.07
 957483,-0.00027665,0.00064355,-0.00000719,-0.00116238,0.00021109,-0.00
 069053,-0.03134851,0.02861199,0.00129691,-0.00281923,-0.00110037,0.001
 89003,0.00018074,0.00062731,-0.00012497,-0.00002975,-0.00044979,-0.000
 00813,0.00599748,-0.00556240,0.00146581,-0.00000123,-0.00013085,0.0001
 0007,-0.00060650,-0.00073383,0.00022873,-0.08083093,0.08031668,-0.0056
 7341,0.00073347,0.00011726,0.00040288,-0.00013530,0.00005745,0.0000794
 3,-0.00003255,0.00000394,0.00001711,-0.00009837,0.00013654,-0.00000346
 ,0.00327848,-0.00127058,-0.00004061,-0.00122246,0.00074256,0.00072367,
 -0.00063365,0.00004210,-0.00092917,0.00014901,0.00003838,-0.00011085,0
 .10885826,0.00018758,-0.00049376,-0.00000486,-0.00071480,-0.00034577,-
 0.00050305,0.01499504,-0.00234126,-0.00073907,0.00065504,0.00056356,0.
 00167085,-0.00027445,-0.00001679,0.00000997,-0.00006404,0.00019227,-0.
 00005707,0.00513919,-0.02070626,0.00753011,0.00004105,0.00014829,0.000
 04457,-0.00060072,0.00013194,0.00016231,