 Default is to use a total of   8 processors:
                                8 via shared-memory
                                1 via Linda
 Entering Link 1 = C:\G16W\l1.exe PID=     15132.
  
 Copyright (c) 1988-2019, Gaussian, Inc.  All Rights Reserved.
  
 This is part of the Gaussian(R) 16 program.  It is based on
 the Gaussian(R) 09 system (copyright 2009, Gaussian, Inc.),
 the Gaussian(R) 03 system (copyright 2003, Gaussian, Inc.),
 the Gaussian(R) 98 system (copyright 1998, Gaussian, Inc.),
 the Gaussian(R) 94 system (copyright 1995, Gaussian, Inc.),
 the Gaussian 92(TM) system (copyright 1992, Gaussian, Inc.),
 the Gaussian 90(TM) system (copyright 1990, Gaussian, Inc.),
 the Gaussian 88(TM) system (copyright 1988, Gaussian, Inc.),
 the Gaussian 86(TM) system (copyright 1986, Carnegie Mellon
 University), and the Gaussian 82(TM) system (copyright 1983,
 Carnegie Mellon University). Gaussian is a federally registered
 trademark of Gaussian, Inc.
  
 This software contains proprietary and confidential information,
 including trade secrets, belonging to Gaussian, Inc.
  
 This software is provided under written license and may be
 used, copied, transmitted, or stored only in accord with that
 written license.
  
 The following legend is applicable only to US Government
 contracts under FAR:
  
                    RESTRICTED RIGHTS LEGEND
  
 Use, reproduction and disclosure by the US Government is
 subject to restrictions as set forth in subparagraphs (a)
 and (c) of the Commercial Computer Software - Restricted
 Rights clause in FAR 52.227-19.
  
 Gaussian, Inc.
 340 Quinnipiac St., Bldg. 40, Wallingford CT 06492
  
  
 ---------------------------------------------------------------
 Warning -- This program may not be used in any manner that
 competes with the business of Gaussian, Inc. or will provide
 assistance to any competitor of Gaussian, Inc.  The licensee
 of this program is prohibited from giving any competitor of
 Gaussian, Inc. access to this program.  By using this program,
 the user acknowledges that Gaussian, Inc. is engaged in the
 business of creating and licensing software in the field of
 computational chemistry and represents and warrants to the
 licensee that it is not a competitor of Gaussian, Inc. and that
 it will not use this program in any manner prohibited above.
 ---------------------------------------------------------------
  

 Cite this work as:
 Gaussian 16, Revision C.01,
 M. J. Frisch, G. W. Trucks, H. B. Schlegel, G. E. Scuseria, 
 M. A. Robb, J. R. Cheeseman, G. Scalmani, V. Barone, 
 G. A. Petersson, H. Nakatsuji, X. Li, M. Caricato, A. V. Marenich, 
 J. Bloino, B. G. Janesko, R. Gomperts, B. Mennucci, H. P. Hratchian, 
 J. V. Ortiz, A. F. Izmaylov, J. L. Sonnenberg, D. Williams-Young, 
 F. Ding, F. Lipparini, F. Egidi, J. Goings, B. Peng, A. Petrone, 
 T. Henderson, D. Ranasinghe, V. G. Zakrzewski, J. Gao, N. Rega, 
 G. Zheng, W. Liang, M. Hada, M. Ehara, K. Toyota, R. Fukuda, 
 J. Hasegawa, M. Ishida, T. Nakajima, Y. Honda, O. Kitao, H. Nakai, 
 T. Vreven, K. Throssell, J. A. Montgomery, Jr., J. E. Peralta, 
 F. Ogliaro, M. J. Bearpark, J. J. Heyd, E. N. Brothers, K. N. Kudin, 
 V. N. Staroverov, T. A. Keith, R. Kobayashi, J. Normand, 
 K. Raghavachari, A. P. Rendell, J. C. Burant, S. S. Iyengar, 
 J. Tomasi, M. Cossi, J. M. Millam, M. Klene, C. Adamo, R. Cammi, 
 J. W. Ochterski, R. L. Martin, K. Morokuma, O. Farkas, 
 J. B. Foresman, and D. J. Fox, Gaussian, Inc., Wallingford CT, 2019.
 
 ******************************************
 Gaussian 16:  EM64W-G16RevC.01 30-May-2019
                15-Nov-2025 
 ******************************************
 %chk=C:\Users\al6323\OneDrive - Imperial College London\Desktop\TSR20251115\Exer
 cise 3\DA reaction\TS_endo_Berny_IRC_product.chk
 Default route: MaxDisk=10GB
 --------------------------------------------------------
 # opt=tight freq rpm6 nosymm geom=connectivity scf=tight
 --------------------------------------------------------
 1/7=10,18=20,19=15,26=1,38=1,57=2/1,3;
 2/9=110,12=2,15=1,17=6,18=5,40=1/2;
 3/5=2,25=1,41=3900000,71=1,116=1/1,2,3;
 4/35=1/1;
 5/5=2,32=2,35=1,38=5/2;
 6/7=2,8=2,9=2,10=2,28=1/1;
 7/30=1/1,2,3,16;
 1/7=10,18=20,19=15,26=1/3(2);
 2/9=110,15=1/2;
 99//99;
 2/9=110,15=1/2;
 3/5=2,25=1,41=3900000,71=1,116=1,135=20/1,2,3;
 4/5=5,16=3,35=1/1;
 5/5=2,32=2,35=1,38=5/2;
 7/30=1/1,2,3,16;
 1/7=10,18=20,19=15,26=1/3(-5);
 2/9=110,15=1/2;
 6/7=2,8=2,9=2,10=2,19=2,28=1/1;
 99/9=1/99;
 -------------------
 Title Card Required
 -------------------
 Symbolic Z-matrix:
 Charge =  0 Multiplicity = 1
 C                    -2.44134  -1.98809   0.17266 
 C                    -1.06867  -2.04165  -0.05891 
 C                    -0.30827  -0.86045  -0.17437 
 C                    -0.95533   0.38156  -0.06796 
 C                    -2.33971   0.42515   0.17541 
 C                    -3.08074  -0.74862   0.29588 
 H                     1.32318  -1.31609  -1.4769 
 H                    -3.01609  -2.90861   0.26117 
 H                    -0.57664  -3.00891  -0.14778 
 C                     1.15458  -1.00638  -0.4249 
 C                    -0.24087   1.70191  -0.17461 
 H                    -2.84016   1.38858   0.27101 
 H                    -4.15156  -0.70281   0.48436 
 H                    -0.10806   2.16034   0.82964 
 O                     1.03883   1.61344  -0.8013 
 S                     2.13089   0.50693  -0.143 
 O                     2.20433   0.71538   1.30549 
 H                    -0.77825   2.41432  -0.83589 
 H                     1.57574  -1.81539   0.20675 
 

 GradGradGradGradGradGradGradGradGradGradGradGradGradGradGradGradGradGrad
 Berny optimization.
 Initialization pass.
                           ----------------------------
                           !    Initial Parameters    !
                           ! (Angstroms and Degrees)  !
 --------------------------                            --------------------------
 ! Name  Definition              Value          Derivative Info.                !
 --------------------------------------------------------------------------------
 ! R1    R(1,2)                  1.3931         estimate D2E/DX2                !
 ! R2    R(1,6)                  1.4001         estimate D2E/DX2                !
 ! R3    R(1,8)                  1.0888         estimate D2E/DX2                !
 ! R4    R(2,3)                  1.4095         estimate D2E/DX2                !
 ! R5    R(2,9)                  1.0888         estimate D2E/DX2                !
 ! R6    R(3,4)                  1.4045         estimate D2E/DX2                !
 ! R7    R(3,10)                 1.4913         estimate D2E/DX2                !
 ! R8    R(4,5)                  1.4063         estimate D2E/DX2                !
 ! R9    R(4,11)                 1.505          estimate D2E/DX2                !
 ! R10   R(5,6)                  1.3933         estimate D2E/DX2                !
 ! R11   R(5,12)                 1.0899         estimate D2E/DX2                !
 ! R12   R(6,13)                 1.0882         estimate D2E/DX2                !
 ! R13   R(7,10)                 1.1095         estimate D2E/DX2                !
 ! R14   R(10,16)                1.8228         estimate D2E/DX2                !
 ! R15   R(10,19)                1.1094         estimate D2E/DX2                !
 ! R16   R(11,14)                1.1119         estimate D2E/DX2                !
 ! R17   R(11,15)                1.4277         estimate D2E/DX2                !
 ! R18   R(11,18)                1.1107         estimate D2E/DX2                !
 ! R19   R(15,16)                1.6883         estimate D2E/DX2                !
 ! R20   R(16,17)                1.4652         estimate D2E/DX2                !
 ! A1    A(2,1,6)              119.9108         estimate D2E/DX2                !
 ! A2    A(2,1,8)              120.0748         estimate D2E/DX2                !
 ! A3    A(6,1,8)              120.014          estimate D2E/DX2                !
 ! A4    A(1,2,3)              120.8611         estimate D2E/DX2                !
 ! A5    A(1,2,9)              119.5367         estimate D2E/DX2                !
 ! A6    A(3,2,9)              119.6017         estimate D2E/DX2                !
 ! A7    A(2,3,4)              119.0985         estimate D2E/DX2                !
 ! A8    A(2,3,10)             117.4475         estimate D2E/DX2                !
 ! A9    A(4,3,10)             123.4482         estimate D2E/DX2                !
 ! A10   A(3,4,5)              119.6077         estimate D2E/DX2                !
 ! A11   A(3,4,11)             123.4849         estimate D2E/DX2                !
 ! A12   A(5,4,11)             116.8969         estimate D2E/DX2                !
 ! A13   A(4,5,6)              120.8244         estimate D2E/DX2                !
 ! A14   A(4,5,12)             119.6448         estimate D2E/DX2                !
 ! A15   A(6,5,12)             119.5308         estimate D2E/DX2                !
 ! A16   A(1,6,5)              119.6877         estimate D2E/DX2                !
 ! A17   A(1,6,13)             120.1245         estimate D2E/DX2                !
 ! A18   A(5,6,13)             120.1878         estimate D2E/DX2                !
 ! A19   A(3,10,7)             109.6125         estimate D2E/DX2                !
 ! A20   A(3,10,16)            114.7184         estimate D2E/DX2                !
 ! A21   A(3,10,19)            110.3703         estimate D2E/DX2                !
 ! A22   A(7,10,16)            107.2765         estimate D2E/DX2                !
 ! A23   A(7,10,19)            106.1758         estimate D2E/DX2                !
 ! A24   A(16,10,19)           108.3009         estimate D2E/DX2                !
 ! A25   A(4,11,14)            110.7565         estimate D2E/DX2                !
 ! A26   A(4,11,15)            113.7191         estimate D2E/DX2                !
 ! A27   A(4,11,18)            112.0374         estimate D2E/DX2                !
 ! A28   A(14,11,15)           108.3583         estimate D2E/DX2                !
 ! A29   A(14,11,18)           109.3342         estimate D2E/DX2                !
 ! A30   A(15,11,18)           102.2451         estimate D2E/DX2                !
 ! A31   A(11,15,16)           116.6963         estimate D2E/DX2                !
 ! A32   A(10,16,15)            97.8949         estimate D2E/DX2                !
 ! A33   A(10,16,17)           107.3274         estimate D2E/DX2                !
 ! A34   A(15,16,17)           108.9442         estimate D2E/DX2                !
 ! D1    D(6,1,2,3)             -0.1164         estimate D2E/DX2                !
 ! D2    D(6,1,2,9)            179.6344         estimate D2E/DX2                !
 ! D3    D(8,1,2,3)           -179.9075         estimate D2E/DX2                !
 ! D4    D(8,1,2,9)             -0.1567         estimate D2E/DX2                !
 ! D5    D(2,1,6,5)              0.4983         estimate D2E/DX2                !
 ! D6    D(2,1,6,13)          -179.5328         estimate D2E/DX2                !
 ! D7    D(8,1,6,5)           -179.7105         estimate D2E/DX2                !
 ! D8    D(8,1,6,13)             0.2584         estimate D2E/DX2                !
 ! D9    D(1,2,3,4)             -0.7198         estimate D2E/DX2                !
 ! D10   D(1,2,3,10)          -179.8802         estimate D2E/DX2                !
 ! D11   D(9,2,3,4)            179.5296         estimate D2E/DX2                !
 ! D12   D(9,2,3,10)             0.3692         estimate D2E/DX2                !
 ! D13   D(2,3,4,5)              1.1667         estimate D2E/DX2                !
 ! D14   D(2,3,4,11)           179.9519         estimate D2E/DX2                !
 ! D15   D(10,3,4,5)          -179.7263         estimate D2E/DX2                !
 ! D16   D(10,3,4,11)           -0.9411         estimate D2E/DX2                !
 ! D17   D(2,3,10,7)            74.1013         estimate D2E/DX2                !
 ! D18   D(2,3,10,16)         -165.161          estimate D2E/DX2                !
 ! D19   D(2,3,10,19)          -42.4999         estimate D2E/DX2                !
 ! D20   D(4,3,10,7)          -105.0194         estimate D2E/DX2                !
 ! D21   D(4,3,10,16)           15.7183         estimate D2E/DX2                !
 ! D22   D(4,3,10,19)          138.3793         estimate D2E/DX2                !
 ! D23   D(3,4,5,6)             -0.8014         estimate D2E/DX2                !
 ! D24   D(3,4,5,12)           179.2064         estimate D2E/DX2                !
 ! D25   D(11,4,5,6)          -179.6653         estimate D2E/DX2                !
 ! D26   D(11,4,5,12)            0.3426         estimate D2E/DX2                !
 ! D27   D(3,4,11,14)         -103.5308         estimate D2E/DX2                !
 ! D28   D(3,4,11,15)           18.7734         estimate D2E/DX2                !
 ! D29   D(3,4,11,18)          134.0997         estimate D2E/DX2                !
 ! D30   D(5,4,11,14)           75.2848         estimate D2E/DX2                !
 ! D31   D(5,4,11,15)         -162.411          estimate D2E/DX2                !
 ! D32   D(5,4,11,18)          -47.0847         estimate D2E/DX2                !
 ! D33   D(4,5,6,1)             -0.0392         estimate D2E/DX2                !
 ! D34   D(4,5,6,13)           179.992          estimate D2E/DX2                !
 ! D35   D(12,5,6,1)           179.953          estimate D2E/DX2                !
 ! D36   D(12,5,6,13)           -0.0159         estimate D2E/DX2                !
 ! D37   D(3,10,16,15)         -39.8701         estimate D2E/DX2                !
 ! D38   D(3,10,16,17)          72.873          estimate D2E/DX2                !
 ! D39   D(7,10,16,15)          82.1452         estimate D2E/DX2                !
 ! D40   D(7,10,16,17)        -165.1117         estimate D2E/DX2                !
 ! D41   D(19,10,16,15)       -163.6402         estimate D2E/DX2                !
 ! D42   D(19,10,16,17)        -50.8971         estimate D2E/DX2                !
 ! D43   D(4,11,15,16)         -54.39           estimate D2E/DX2                !
 ! D44   D(14,11,15,16)         69.2283         estimate D2E/DX2                !
 ! D45   D(18,11,15,16)       -175.3693         estimate D2E/DX2                !
 ! D46   D(11,15,16,10)         61.4844         estimate D2E/DX2                !
 ! D47   D(11,15,16,17)        -49.9538         estimate D2E/DX2                !
 --------------------------------------------------------------------------------
 Trust Radius=3.00D-01 FncErr=1.00D-07 GrdErr=1.00D-07 EigMax=2.50D+02 EigMin=1.00D-04
 Number of steps in this run=    111 maximum allowed number of steps=    114.
 GradGradGradGradGradGradGradGradGradGradGradGradGradGradGradGradGradGrad

                          Input orientation:                          
 ---------------------------------------------------------------------
 Center     Atomic      Atomic             Coordinates (Angstroms)
 Number     Number       Type             X           Y           Z
 ---------------------------------------------------------------------
      1          6           0       -2.441344   -1.988089    0.172655
      2          6           0       -1.068674   -2.041653   -0.058913
      3          6           0       -0.308266   -0.860447   -0.174372
      4          6           0       -0.955331    0.381560   -0.067962
      5          6           0       -2.339706    0.425153    0.175408
      6          6           0       -3.080744   -0.748621    0.295884
      7          1           0        1.323178   -1.316094   -1.476899
      8          1           0       -3.016088   -2.908606    0.261172
      9          1           0       -0.576641   -3.008914   -0.147780
     10          6           0        1.154577   -1.006380   -0.424900
     11          6           0       -0.240866    1.701913   -0.174612
     12          1           0       -2.840156    1.388579    0.271011
     13          1           0       -4.151555   -0.702805    0.484363
     14          1           0       -0.108061    2.160343    0.829640
     15          8           0        1.038834    1.613436   -0.801303
     16         16           0        2.130891    0.506933   -0.142996
     17          8           0        2.204333    0.715384    1.305489
     18          1           0       -0.778251    2.414317   -0.835886
     19          1           0        1.575739   -1.815389    0.206751
 ---------------------------------------------------------------------
                    Distance matrix (angstroms):
                    1          2          3          4          5
     1  C    0.000000
     2  C    1.393095   0.000000
     3  C    2.437627   1.409538   0.000000
     4  C    2.807378   2.425879   1.404492   0.000000
     5  C    2.415384   2.784881   2.429376   1.406281   0.000000
     6  C    1.400107   2.417900   2.814300   2.434559   1.393340
     7  H    4.164640   2.873687   2.136773   3.171551   4.379359
     8  H    1.088815   2.155570   3.423004   3.896183   3.402764
     9  H    2.149855   1.088847   2.165327   3.412491   3.873715
    10  C    3.775112   2.479633   1.491297   2.550586   3.823568
    11  C    4.310315   3.835745   2.563246   1.505047   2.481484
    12  H    3.401561   3.874725   3.415693   2.163690   1.089853
    13  H    2.161930   3.404676   3.902519   3.420053   2.156511
    14  H    4.804719   4.401031   3.189561   2.165092   2.901576
    15  O    5.102080   4.283971   2.885796   2.456013   3.712212
    16  S    5.218247   4.091403   2.796462   3.089679   4.482668
    17  O    5.493122   4.491706   3.314571   3.461399   4.691440
    18  H    4.812922   4.532516   3.373806   2.180175   2.723533
    19  H    4.020938   2.667339   2.146309   3.362792   4.511289
                    6          7          8          9         10
     6  C    0.000000
     7  H    4.781142   0.000000
     8  H    2.161232   4.938240   0.000000
     9  H    3.402396   2.870803   2.475521   0.000000
    10  C    4.303941   1.109528   4.635041   2.661589   0.000000
    11  C    3.780396   3.640130   5.398949   4.722855   3.056919
    12  H    2.150843   5.263440   4.300797   4.963551   4.709353
    13  H    1.088237   5.847681   2.490915   4.300902   5.392026
    14  H    4.193306   4.410690   5.871458   5.281680   3.632666
    15  O    4.873813   3.019839   6.166045   4.939937   2.649247
    16  S    5.378678   2.398985   6.190368   4.437560   1.822848
    17  O    5.576258   3.555984   6.440240   4.869929   2.657199
    18  H    4.072659   4.329303   5.877496   5.470427   3.950430
    19  H    4.777947   1.774193   4.720484   2.486552   1.109440
                   11         12         13         14         15
    11  C    0.000000
    12  H    2.655761   0.000000
    13  H    4.637931   2.477736   0.000000
    14  H    1.111899   2.893446   4.966556   0.000000
    15  O    1.427656   4.030754   5.827354   2.067475   0.000000
    16  S    2.655975   5.065571   6.428544   2.948337   1.688285
    17  O    3.023729   5.193285   6.563750   2.767943   2.569720
    18  H    1.110669   2.555154   4.778984   1.813184   1.986052
    19  H    3.977047   5.456159   5.840960   4.362295   3.614039
                   16         17         18         19
    16  S    0.000000
    17  O    1.465249   0.000000
    18  H    3.547015   4.045697   0.000000
    19  H    2.413233   2.829693   4.951643   0.000000
 Symmetry turned off by external request.
 Stoichiometry    C8H8O2S
 Framework group  C1[X(C8H8O2S)]
 Deg. of freedom    51
 Full point group                 C1      NOp   1
 Rotational constants (GHZ):           2.1893357           0.7280764           0.6076880
 Standard basis: VSTO-6G (5D, 7F)
    57 basis functions,   348 primitive gaussians,    58 cartesian basis functions
    29 alpha electrons       29 beta electrons
       nuclear repulsion energy       342.8949448041 Hartrees.
 Integral buffers will be    131072 words long.
 Regular integral format.
 Two-electron integral symmetry is turned off.
 Do NDO integrals.
 One-electron integrals computed using PRISM.
 NBasis=    57 RedAO= F EigKep=  0.00D+00  NBF=    57
 NBsUse=    57 1.00D-04 EigRej=  0.00D+00 NBFU=    57
 Nonelectrostatic core Hamiltonian diagonalized for initial guess.
 Keep J ints in memory in canonical form, NReq=1859402.
 Overlap will be assumed to be unity.
 Requested convergence on RMS density matrix=1.00D-08 within 128 cycles.
 Requested convergence on MAX density matrix=1.00D-06.
 Requested convergence on             energy=1.00D-06.
 No special actions if energy rises.
 SCF Done:  E(RPM6) = -0.779515995343E-01 A.U. after   22 cycles
            NFock= 21  Conv=0.62D-08     -V/T= 0.9993

 **********************************************************************

            Population analysis using the SCF Density.

 **********************************************************************

 Alpha  occ. eigenvalues --   -1.16534  -1.10388  -1.06555  -1.00347  -0.98057
 Alpha  occ. eigenvalues --   -0.91981  -0.86128  -0.80994  -0.78528  -0.70709
 Alpha  occ. eigenvalues --   -0.64976  -0.61696  -0.59145  -0.58724  -0.57120
 Alpha  occ. eigenvalues --   -0.54484  -0.53640  -0.52649  -0.51598  -0.48761
 Alpha  occ. eigenvalues --   -0.47385  -0.46769  -0.45189  -0.44638  -0.40987
 Alpha  occ. eigenvalues --   -0.39650  -0.35909  -0.34813  -0.32998
 Alpha virt. eigenvalues --    0.00376   0.00564   0.01044   0.02617   0.04854
 Alpha virt. eigenvalues --    0.08959   0.11118   0.12359   0.13677   0.16169
 Alpha virt. eigenvalues --    0.17045   0.17436   0.17784   0.17926   0.18492
 Alpha virt. eigenvalues --    0.19317   0.20021   0.20213   0.20632   0.20891
 Alpha virt. eigenvalues --    0.20987   0.21581   0.22003   0.22226   0.22602
 Alpha virt. eigenvalues --    0.22741   0.23291   0.26540
          Condensed to atoms (all electrons):
               1          2          3          4          5          6
     1  C    4.118238   0.000000   0.000000   0.000000   0.000000   0.000000
     2  C    0.000000   4.204319   0.000000   0.000000   0.000000   0.000000
     3  C    0.000000   0.000000   3.895682   0.000000   0.000000   0.000000
     4  C    0.000000   0.000000   0.000000   4.091242   0.000000   0.000000
     5  C    0.000000   0.000000   0.000000   0.000000   4.141325   0.000000
     6  C    0.000000   0.000000   0.000000   0.000000   0.000000   4.158934
     7  H    0.000000   0.000000   0.000000   0.000000   0.000000   0.000000
     8  H    0.000000   0.000000   0.000000   0.000000   0.000000   0.000000
     9  H    0.000000   0.000000   0.000000   0.000000   0.000000   0.000000
    10  C    0.000000   0.000000   0.000000   0.000000   0.000000   0.000000
    11  C    0.000000   0.000000   0.000000   0.000000   0.000000   0.000000
    12  H    0.000000   0.000000   0.000000   0.000000   0.000000   0.000000
    13  H    0.000000   0.000000   0.000000   0.000000   0.000000   0.000000
    14  H    0.000000   0.000000   0.000000   0.000000   0.000000   0.000000
    15  O    0.000000   0.000000   0.000000   0.000000   0.000000   0.000000
    16  S    0.000000   0.000000   0.000000   0.000000   0.000000   0.000000
    17  O    0.000000   0.000000   0.000000   0.000000   0.000000   0.000000
    18  H    0.000000   0.000000   0.000000   0.000000   0.000000   0.000000
    19  H    0.000000   0.000000   0.000000   0.000000   0.000000   0.000000
               7          8          9         10         11         12
     1  C    0.000000   0.000000   0.000000   0.000000   0.000000   0.000000
     2  C    0.000000   0.000000   0.000000   0.000000   0.000000   0.000000
     3  C    0.000000   0.000000   0.000000   0.000000   0.000000   0.000000
     4  C    0.000000   0.000000   0.000000   0.000000   0.000000   0.000000
     5  C    0.000000   0.000000   0.000000   0.000000   0.000000   0.000000
     6  C    0.000000   0.000000   0.000000   0.000000   0.000000   0.000000
     7  H    0.806335   0.000000   0.000000   0.000000   0.000000   0.000000
     8  H    0.000000   0.854525   0.000000   0.000000   0.000000   0.000000
     9  H    0.000000   0.000000   0.847981   0.000000   0.000000   0.000000
    10  C    0.000000   0.000000   0.000000   4.607329   0.000000   0.000000
    11  C    0.000000   0.000000   0.000000   0.000000   4.022184   0.000000
    12  H    0.000000   0.000000   0.000000   0.000000   0.000000   0.852232
    13  H    0.000000   0.000000   0.000000   0.000000   0.000000   0.000000
    14  H    0.000000   0.000000   0.000000   0.000000   0.000000   0.000000
    15  O    0.000000   0.000000   0.000000   0.000000   0.000000   0.000000
    16  S    0.000000   0.000000   0.000000   0.000000   0.000000   0.000000
    17  O    0.000000   0.000000   0.000000   0.000000   0.000000   0.000000
    18  H    0.000000   0.000000   0.000000   0.000000   0.000000   0.000000
    19  H    0.000000   0.000000   0.000000   0.000000   0.000000   0.000000
              13         14         15         16         17         18
     1  C    0.000000   0.000000   0.000000   0.000000   0.000000   0.000000
     2  C    0.000000   0.000000   0.000000   0.000000   0.000000   0.000000
     3  C    0.000000   0.000000   0.000000   0.000000   0.000000   0.000000
     4  C    0.000000   0.000000   0.000000   0.000000   0.000000   0.000000
     5  C    0.000000   0.000000   0.000000   0.000000   0.000000   0.000000
     6  C    0.000000   0.000000   0.000000   0.000000   0.000000   0.000000
     7  H    0.000000   0.000000   0.000000   0.000000   0.000000   0.000000
     8  H    0.000000   0.000000   0.000000   0.000000   0.000000   0.000000
     9  H    0.000000   0.000000   0.000000   0.000000   0.000000   0.000000
    10  C    0.000000   0.000000   0.000000   0.000000   0.000000   0.000000
    11  C    0.000000   0.000000   0.000000   0.000000   0.000000   0.000000
    12  H    0.000000   0.000000   0.000000   0.000000   0.000000   0.000000
    13  H    0.850701   0.000000   0.000000   0.000000   0.000000   0.000000
    14  H    0.000000   0.851190   0.000000   0.000000   0.000000   0.000000
    15  O    0.000000   0.000000   6.567761   0.000000   0.000000   0.000000
    16  S    0.000000   0.000000   0.000000   4.785124   0.000000   0.000000
    17  O    0.000000   0.000000   0.000000   0.000000   6.696157   0.000000
    18  H    0.000000   0.000000   0.000000   0.000000   0.000000   0.844034
    19  H    0.000000   0.000000   0.000000   0.000000   0.000000   0.000000
              19
     1  C    0.000000
     2  C    0.000000
     3  C    0.000000
     4  C    0.000000
     5  C    0.000000
     6  C    0.000000
     7  H    0.000000
     8  H    0.000000
     9  H    0.000000
    10  C    0.000000
    11  C    0.000000
    12  H    0.000000
    13  H    0.000000
    14  H    0.000000
    15  O    0.000000
    16  S    0.000000
    17  O    0.000000
    18  H    0.000000
    19  H    0.804707
 Mulliken charges:
               1
     1  C   -0.118238
     2  C   -0.204319
     3  C    0.104318
     4  C   -0.091242
     5  C   -0.141325
     6  C   -0.158934
     7  H    0.193665
     8  H    0.145475
     9  H    0.152019
    10  C   -0.607329
    11  C   -0.022184
    12  H    0.147768
    13  H    0.149299
    14  H    0.148810
    15  O   -0.567761
    16  S    1.214876
    17  O   -0.696157
    18  H    0.155966
    19  H    0.195293
 Sum of Mulliken charges =   0.00000
 Mulliken charges with hydrogens summed into heavy atoms:
               1
     1  C    0.027238
     2  C   -0.052300
     3  C    0.104318
     4  C   -0.091242
     5  C    0.006443
     6  C   -0.009635
    10  C   -0.218371
    11  C    0.282592
    15  O   -0.567761
    16  S    1.214876
    17  O   -0.696157
 Charge=              0.0000 electrons
 Dipole moment (field-independent basis, Debye):
    X=             -0.9878    Y=             -2.3069    Z=             -2.4039  Tot=              3.4751
 N-N= 3.428949448041D+02 E-N=-5.386856126260D+02  KE=-1.098331737736D+02
 Calling FoFJK, ICntrl=      2127 FMM=F ISym2X=0 I1Cent= 0 IOpClX= 0 NMat=1 NMatS=1 NMatT=0.
 -------------------------------------------------------------------
 Center     Atomic                   Forces (Hartrees/Bohr)
 Number     Number              X              Y              Z
 -------------------------------------------------------------------
      1        6           0.000029937   -0.000013741    0.000143362
      2        6           0.000036186    0.000007595    0.000176754
      3        6          -0.000008599    0.000020464    0.000014322
      4        6          -0.000040823    0.000010946   -0.000079430
      5        6          -0.000059380   -0.000009704   -0.000176811
      6        6          -0.000026271   -0.000020794   -0.000080259
      7        1          -0.000009979    0.000014509   -0.000013262
      8        1           0.000005614   -0.000001971    0.000023219
      9        1           0.000006288    0.000001208    0.000026884
     10        6          -0.000028767    0.000047889   -0.000106124
     11        6          -0.000056928    0.000024300   -0.000014022
     12        1          -0.000008319   -0.000001418   -0.000026706
     13        1          -0.000003427   -0.000002931   -0.000013646
     14        1          -0.000014903    0.000001517    0.000000339
     15        8           0.000019039    0.000127301    0.000172102
     16       16          -0.000004634    0.000036524   -0.000030049
     17        8           0.000163238   -0.000240985    0.000008752
     18        1          -0.000000829    0.000001327   -0.000005218
     19        1           0.000002556   -0.000002038   -0.000020208
 -------------------------------------------------------------------
 Cartesian Forces:  Max     0.000240985 RMS     0.000067620

 GradGradGradGradGradGradGradGradGradGradGradGradGradGradGradGradGradGrad
 Berny optimization.
 FormGI is forming the generalized inverse of G from B-inverse, IUseBI=4.
 Internal  Forces:  Max     0.000221259 RMS     0.000086360
 Search for a local minimum.
 Step number   1 out of a maximum of  111
 All quantities printed in internal units (Hartrees-Bohrs-Radians)
 Mixed Optimization -- En-DIIS/RFO-DIIS
 Second derivative matrix not updated -- first step.
 ITU=  0
     Eigenvalues ---    0.00702   0.01186   0.01419   0.01628   0.02034
     Eigenvalues ---    0.02064   0.02067   0.02085   0.02127   0.02129
     Eigenvalues ---    0.02150   0.04129   0.05621   0.06516   0.07116
     Eigenvalues ---    0.07693   0.10292   0.11051   0.11903   0.12194
     Eigenvalues ---    0.14919   0.16000   0.16000   0.16000   0.16000
     Eigenvalues ---    0.19736   0.21502   0.22000   0.22657   0.23956
     Eigenvalues ---    0.24404   0.24726   0.31241   0.32400   0.32519
     Eigenvalues ---    0.32529   0.32650   0.32659   0.34830   0.34946
     Eigenvalues ---    0.34950   0.35017   0.35817   0.39725   0.40757
     Eigenvalues ---    0.41145   0.44228   0.45109   0.45840   0.46553
     Eigenvalues ---    0.89441
 RFO step:  Lambda=-2.27501094D-05 EMin= 7.02273411D-03
 Linear search not attempted -- first point.
 Iteration  1 RMS(Cart)=  0.00634000 RMS(Int)=  0.00001701
 Iteration  2 RMS(Cart)=  0.00002074 RMS(Int)=  0.00000378
 Iteration  3 RMS(Cart)=  0.00000000 RMS(Int)=  0.00000378
 Variable       Old X    -DE/DX   Delta X   Delta X   Delta X     New X
                                 (Linear)    (Quad)   (Total)
    R1        2.63257  -0.00001   0.00000  -0.00005  -0.00005   2.63252
    R2        2.64582   0.00000   0.00000  -0.00003  -0.00003   2.64579
    R3        2.05756   0.00000   0.00000   0.00000   0.00000   2.05756
    R4        2.66364  -0.00001   0.00000  -0.00002  -0.00002   2.66362
    R5        2.05762   0.00000   0.00000   0.00000   0.00000   2.05762
    R6        2.65411   0.00003   0.00000  -0.00003  -0.00003   2.65407
    R7        2.81814   0.00003   0.00000  -0.00007  -0.00007   2.81807
    R8        2.65749   0.00005   0.00000   0.00014   0.00013   2.65762
    R9        2.84413   0.00006   0.00000   0.00016   0.00016   2.84429
   R10        2.63303   0.00003   0.00000   0.00007   0.00007   2.63310
   R11        2.05952   0.00000   0.00000   0.00000   0.00000   2.05952
   R12        2.05647   0.00000   0.00000   0.00000   0.00000   2.05647
   R13        2.09670   0.00001   0.00000   0.00002   0.00002   2.09672
   R14        3.44468  -0.00005   0.00000  -0.00028  -0.00028   3.44441
   R15        2.09654  -0.00001   0.00000  -0.00003  -0.00003   2.09651
   R16        2.10118   0.00000   0.00000   0.00000   0.00000   2.10118
   R17        2.69788   0.00006   0.00000   0.00021   0.00021   2.69809
   R18        2.09886   0.00000   0.00000   0.00001   0.00001   2.09887
   R19        3.19040   0.00014   0.00000   0.00062   0.00062   3.19102
   R20        2.76892  -0.00002   0.00000  -0.00002  -0.00002   2.76890
    A1        2.09284   0.00000   0.00000  -0.00006  -0.00007   2.09277
    A2        2.09570   0.00000   0.00000   0.00002   0.00002   2.09572
    A3        2.09464   0.00000   0.00000   0.00005   0.00005   2.09469
    A4        2.10942   0.00002   0.00000   0.00011   0.00010   2.10953
    A5        2.08631  -0.00001   0.00000  -0.00004  -0.00003   2.08627
    A6        2.08744  -0.00001   0.00000  -0.00007  -0.00007   2.08738
    A7        2.07866   0.00001   0.00000   0.00011   0.00010   2.07876
    A8        2.04985  -0.00006   0.00000  -0.00041  -0.00040   2.04945
    A9        2.15458   0.00005   0.00000   0.00031   0.00030   2.15488
   A10        2.08755  -0.00003   0.00000  -0.00013  -0.00014   2.08741
   A11        2.15522  -0.00006   0.00000   0.00003   0.00002   2.15524
   A12        2.04024   0.00009   0.00000   0.00005   0.00006   2.04030
   A13        2.10878   0.00000   0.00000   0.00011   0.00010   2.10889
   A14        2.08820   0.00000   0.00000  -0.00003  -0.00003   2.08817
   A15        2.08621   0.00000   0.00000  -0.00008  -0.00008   2.08613
   A16        2.08894   0.00000   0.00000   0.00001   0.00000   2.08895
   A17        2.09657   0.00000   0.00000  -0.00002  -0.00002   2.09655
   A18        2.09767   0.00000   0.00000   0.00002   0.00002   2.09769
   A19        1.91310  -0.00013   0.00000  -0.00001  -0.00001   1.91309
   A20        2.00221   0.00011   0.00000   0.00062   0.00061   2.00283
   A21        1.92632   0.00007   0.00000  -0.00028  -0.00028   1.92605
   A22        1.87233   0.00008   0.00000   0.00047   0.00048   1.87281
   A23        1.85312   0.00001   0.00000  -0.00009  -0.00009   1.85303
   A24        1.89021  -0.00014   0.00000  -0.00075  -0.00075   1.88946
   A25        1.93307  -0.00007   0.00000  -0.00054  -0.00054   1.93253
   A26        1.98477  -0.00001   0.00000   0.00095   0.00094   1.98571
   A27        1.95542   0.00006   0.00000   0.00007   0.00008   1.95550
   A28        1.89121   0.00001   0.00000  -0.00003  -0.00003   1.89118
   A29        1.90824   0.00000   0.00000  -0.00018  -0.00018   1.90806
   A30        1.78451   0.00001   0.00000  -0.00027  -0.00027   1.78425
   A31        2.03673   0.00022   0.00000   0.00308   0.00307   2.03981
   A32        1.70859  -0.00009   0.00000   0.00113   0.00112   1.70971
   A33        1.87322  -0.00022   0.00000  -0.00091  -0.00091   1.87231
   A34        1.90144   0.00022   0.00000   0.00283   0.00283   1.90426
    D1       -0.00203   0.00007   0.00000   0.00249   0.00249   0.00046
    D2        3.13521   0.00007   0.00000   0.00312   0.00312   3.13833
    D3       -3.13998   0.00000   0.00000  -0.00023  -0.00022  -3.14020
    D4       -0.00273   0.00001   0.00000   0.00040   0.00040  -0.00234
    D5        0.00870  -0.00010   0.00000  -0.00502  -0.00502   0.00367
    D6       -3.13344  -0.00005   0.00000  -0.00227  -0.00227  -3.13571
    D7       -3.13654  -0.00004   0.00000  -0.00231  -0.00231  -3.13885
    D8        0.00451   0.00001   0.00000   0.00045   0.00045   0.00496
    D9       -0.01256   0.00006   0.00000   0.00398   0.00398  -0.00859
   D10       -3.13950   0.00009   0.00000   0.00367   0.00367  -3.13583
   D11        3.13338   0.00005   0.00000   0.00335   0.00335   3.13674
   D12        0.00644   0.00008   0.00000   0.00305   0.00305   0.00949
   D13        0.02036  -0.00015   0.00000  -0.00786  -0.00786   0.01250
   D14        3.14075  -0.00016   0.00000  -0.01057  -0.01057   3.13019
   D15       -3.13682  -0.00018   0.00000  -0.00754  -0.00754   3.13883
   D16       -0.01643  -0.00019   0.00000  -0.01025  -0.01025  -0.02668
   D17        1.29331   0.00008   0.00000   0.00654   0.00654   1.29985
   D18       -2.88260   0.00015   0.00000   0.00758   0.00758  -2.87503
   D19       -0.74176   0.00010   0.00000   0.00682   0.00682  -0.73494
   D20       -1.83293   0.00011   0.00000   0.00622   0.00623  -1.82671
   D21        0.27434   0.00019   0.00000   0.00726   0.00726   0.28160
   D22        2.41517   0.00014   0.00000   0.00651   0.00651   2.42168
   D23       -0.01399   0.00011   0.00000   0.00542   0.00542  -0.00857
   D24        3.12774   0.00006   0.00000   0.00264   0.00264   3.13039
   D25       -3.13575   0.00012   0.00000   0.00795   0.00795  -3.12780
   D26        0.00598   0.00007   0.00000   0.00518   0.00518   0.01116
   D27       -1.80695   0.00002   0.00000   0.00328   0.00328  -1.80367
   D28        0.32766  -0.00003   0.00000   0.00352   0.00352   0.33118
   D29        2.34048   0.00002   0.00000   0.00385   0.00385   2.34433
   D30        1.31397   0.00000   0.00000   0.00064   0.00064   1.31461
   D31       -2.83461  -0.00004   0.00000   0.00088   0.00088  -2.83373
   D32       -0.82178   0.00001   0.00000   0.00121   0.00121  -0.82058
   D33       -0.00068   0.00001   0.00000   0.00107   0.00107   0.00039
   D34        3.14145  -0.00004   0.00000  -0.00169  -0.00169   3.13977
   D35        3.14077   0.00007   0.00000   0.00385   0.00385  -3.13857
   D36       -0.00028   0.00002   0.00000   0.00109   0.00109   0.00081
   D37       -0.69586   0.00006   0.00000   0.00093   0.00094  -0.69493
   D38        1.27187   0.00020   0.00000   0.00419   0.00419   1.27607
   D39        1.43370   0.00002   0.00000   0.00168   0.00168   1.43539
   D40       -2.88174   0.00016   0.00000   0.00494   0.00494  -2.87681
   D41       -2.85606   0.00001   0.00000   0.00145   0.00145  -2.85461
   D42       -0.88832   0.00015   0.00000   0.00470   0.00470  -0.88362
   D43       -0.94928   0.00015   0.00000   0.00489   0.00490  -0.94439
   D44        1.20826   0.00007   0.00000   0.00483   0.00483   1.21309
   D45       -3.06077   0.00007   0.00000   0.00449   0.00449  -3.05628
   D46        1.07311  -0.00018   0.00000  -0.00664  -0.00664   1.06646
   D47       -0.87186   0.00003   0.00000  -0.00693  -0.00693  -0.87879
         Item               Value     Threshold  Converged?
 Maximum Force            0.000221     0.000015     NO 
 RMS     Force            0.000086     0.000010     NO 
 Maximum Displacement     0.022149     0.000060     NO 
 RMS     Displacement     0.006342     0.000040     NO 
 Predicted change in Energy=-1.140344D-05
 GradGradGradGradGradGradGradGradGradGradGradGradGradGradGradGradGradGrad

                          Input orientation:                          
 ---------------------------------------------------------------------
 Center     Atomic      Atomic             Coordinates (Angstroms)
 Number     Number       Type             X           Y           Z
 ---------------------------------------------------------------------
      1          6           0       -2.440185   -1.988196    0.178209
      2          6           0       -1.067456   -2.040985   -0.053025
      3          6           0       -0.308689   -0.859389   -0.174971
      4          6           0       -0.956578    0.382344   -0.070621
      5          6           0       -2.341922    0.425187    0.167730
      6          6           0       -3.081849   -0.748976    0.291613
      7          1           0        1.319363   -1.312045   -1.482723
      8          1           0       -3.013615   -2.909056    0.271560
      9          1           0       -0.574111   -3.008003   -0.137143
     10          6           0        1.153444   -1.005224   -0.429438
     11          6           0       -0.241688    1.703055   -0.170990
     12          1           0       -2.843594    1.388370    0.259290
     13          1           0       -4.153101   -0.703653    0.477701
     14          1           0       -0.112313    2.157941    0.835318
     15          8           0        1.040117    1.617795   -0.794069
     16         16           0        2.132170    0.505748   -0.144310
     17          8           0        2.213626    0.704363    1.305118
     18          1           0       -0.777197    2.417763   -0.831311
     19          1           0        1.575446   -1.816419    0.198813
 ---------------------------------------------------------------------
                    Distance matrix (angstroms):
                    1          2          3          4          5
     1  C    0.000000
     2  C    1.393069   0.000000
     3  C    2.437666   1.409527   0.000000
     4  C    2.807572   2.425928   1.404475   0.000000
     5  C    2.415405   2.784780   2.429324   1.406352   0.000000
     6  C    1.400093   2.417818   2.814305   2.434723   1.393376
     7  H    4.165342   2.876159   2.136742   3.169368   4.375726
     8  H    1.088816   2.155560   3.423032   3.896383   3.402811
     9  H    2.149810   1.088847   2.165276   3.412500   3.873615
    10  C    3.774869   2.479291   1.491259   2.550742   3.823646
    11  C    4.310530   3.835837   2.563323   1.505132   2.481666
    12  H    3.401545   3.874621   3.415662   2.163737   1.089853
    13  H    2.161903   3.404604   3.902529   3.420205   2.156554
    14  H    4.800128   4.396866   3.188029   2.164776   2.901598
    15  O    5.104997   4.286919   2.887733   2.456931   3.712891
    16  S    5.218257   4.090451   2.796844   3.092091   4.485684
    17  O    5.493428   4.488539   3.316331   3.470814   4.703681
    18  H    4.816340   4.535462   3.374909   2.180312   2.723382
    19  H    4.019357   2.664354   2.146063   3.364268   4.513484
                    6          7          8          9         10
     6  C    0.000000
     7  H    4.778701   0.000000
     8  H    2.161250   4.939904   0.000000
     9  H    3.402320   2.876127   2.475481   0.000000
    10  C    4.303869   1.109539   4.634691   2.661016   0.000000
    11  C    3.780606   3.639828   5.399167   4.722893   3.057444
    12  H    2.150827   5.258998   4.300805   4.963447   4.709559
    13  H    1.088238   5.844763   2.490928   4.300840   5.391962
    14  H    4.190934   4.411780   5.865990   5.276922   3.634192
    15  O    4.875543   3.022612   6.169334   4.943206   2.650665
    16  S    5.380554   2.399245   6.189745   4.435139   1.822701
    17  O    5.584035   3.554949   6.438097   4.861404   2.656192
    18  H    4.074385   4.327975   5.881572   5.473760   3.950407
    19  H    4.778959   1.774130   4.717906   2.480592   1.109425
                   11         12         13         14         15
    11  C    0.000000
    12  H    2.655953   0.000000
    13  H    4.638124   2.477714   0.000000
    14  H    1.111897   2.895505   4.964330   0.000000
    15  O    1.427767   4.030560   5.828896   2.067547   0.000000
    16  S    2.658845   5.069531   6.430721   2.954169   1.688613
    17  O    3.033949   5.209328   6.572848   2.782731   2.572560
    18  H    1.110676   2.553245   4.780530   1.813073   1.985942
    19  H    3.978119   5.459144   5.842284   4.364539   3.614722
                   16         17         18         19
    16  S    0.000000
    17  O    1.465238   0.000000
    18  H    3.548548   4.055255   0.000000
    19  H    2.412496   2.825867   4.952210   0.000000
 Symmetry turned off by external request.
 Stoichiometry    C8H8O2S
 Framework group  C1[X(C8H8O2S)]
 Deg. of freedom    51
 Full point group                 C1      NOp   1
 Rotational constants (GHZ):           2.1881396           0.7276890           0.6070054
 Standard basis: VSTO-6G (5D, 7F)
    57 basis functions,   348 primitive gaussians,    58 cartesian basis functions
    29 alpha electrons       29 beta electrons
       nuclear repulsion energy       342.8314431281 Hartrees.
 Integral buffers will be    131072 words long.
 Regular integral format.
 Two-electron integral symmetry is turned off.
 Do NDO integrals.
 One-electron integrals computed using PRISM.
 NBasis=    57 RedAO= F EigKep=  0.00D+00  NBF=    57
 NBsUse=    57 1.00D-04 EigRej=  0.00D+00 NBFU=    57
 Initial guess from the checkpoint file:  "C:\Users\al6323\OneDrive - Imperial College London\Desktop\TSR20251115\Exercise 3\DA reaction\TS_endo_Berny_IRC_product.chk"
 B after Tr=     0.001533   -0.000963    0.000113
         Rot=    1.000000   -0.000484   -0.000176    0.000251 Ang=  -0.07 deg.
 Keep J ints in memory in canonical form, NReq=1859402.
 Overlap will be assumed to be unity.
 Requested convergence on RMS density matrix=1.00D-08 within 128 cycles.
 Requested convergence on MAX density matrix=1.00D-06.
 Requested convergence on             energy=1.00D-06.
 No special actions if energy rises.
 SCF Done:  E(RPM6) = -0.779685624321E-01 A.U. after   12 cycles
            NFock= 11  Conv=0.77D-08     -V/T= 0.9993
 Calling FoFJK, ICntrl=      2127 FMM=F ISym2X=0 I1Cent= 0 IOpClX= 0 NMat=1 NMatS=1 NMatT=0.
 -------------------------------------------------------------------
 Center     Atomic                   Forces (Hartrees/Bohr)
 Number     Number              X              Y              Z
 -------------------------------------------------------------------
      1        6          -0.000028463   -0.000005947   -0.000134314
      2        6          -0.000000302   -0.000011942    0.000076948
      3        6           0.000027751    0.000039140    0.000123039
      4        6          -0.000005551    0.000038807   -0.000101793
      5        6           0.000021634   -0.000011663    0.000032563
      6        6           0.000028299    0.000017691    0.000114261
      7        1          -0.000031791    0.000045013   -0.000009583
      8        1           0.000011630   -0.000002314    0.000074383
      9        1           0.000006896   -0.000011888    0.000040441
     10        6          -0.000063402    0.000035670   -0.000046321
     11        6           0.000081036   -0.000093833   -0.000147600
     12        1          -0.000016370   -0.000001855   -0.000089344
     13        1          -0.000012380    0.000002763   -0.000068832
     14        1           0.000017083   -0.000028436   -0.000031129
     15        8           0.000042324   -0.000095240    0.000366586
     16       16          -0.000183978    0.000288178   -0.000044553
     17        8           0.000047870   -0.000157407   -0.000123717
     18        1           0.000005688    0.000007998   -0.000010383
     19        1           0.000052027   -0.000054734   -0.000020652
 -------------------------------------------------------------------
 Cartesian Forces:  Max     0.000366586 RMS     0.000089187

 GradGradGradGradGradGradGradGradGradGradGradGradGradGradGradGradGradGrad
 Berny optimization.
 Using GEDIIS/GDIIS optimizer.
 FormGI is forming the generalized inverse of G from B-inverse, IUseBI=4.
 Internal  Forces:  Max     0.000252005 RMS     0.000062773
 Search for a local minimum.
 Step number   2 out of a maximum of  111
 All quantities printed in internal units (Hartrees-Bohrs-Radians)
 Mixed Optimization -- En-DIIS/RFO-DIIS
 Swapping is turned off.
 Update second derivatives using D2CorX and points    1    2
 DE= -1.70D-05 DEPred=-1.14D-05 R= 1.49D+00
 TightC=F SS=  1.41D+00  RLast= 3.40D-02 DXNew= 5.0454D-01 1.0206D-01
 Trust test= 1.49D+00 RLast= 3.40D-02 DXMaxT set to 3.00D-01
 ITU=  1  0
     Eigenvalues ---    0.00601   0.00865   0.01279   0.01523   0.01744
     Eigenvalues ---    0.02053   0.02068   0.02103   0.02125   0.02150
     Eigenvalues ---    0.02358   0.04173   0.05601   0.06512   0.07078
     Eigenvalues ---    0.07677   0.10300   0.11044   0.11906   0.12200
     Eigenvalues ---    0.14154   0.16000   0.16000   0.16000   0.16001
     Eigenvalues ---    0.19782   0.21377   0.22000   0.22653   0.23963
     Eigenvalues ---    0.24401   0.24773   0.31349   0.32407   0.32529
     Eigenvalues ---    0.32544   0.32650   0.32685   0.34830   0.34947
     Eigenvalues ---    0.34950   0.35017   0.36930   0.39893   0.41101
     Eigenvalues ---    0.41692   0.44249   0.45130   0.45840   0.46563
     Eigenvalues ---    0.89582
 En-DIIS/RFO-DIIS/Sim-DIIS IScMMF=       -3 using points:     2    1
 RFO step:  Lambda=-1.97126843D-05.
 DidBck=F Rises=F RFO-DIIS coefs:    2.37404   -1.37404
 Iteration  1 RMS(Cart)=  0.00933827 RMS(Int)=  0.00003723
 Iteration  2 RMS(Cart)=  0.00004368 RMS(Int)=  0.00001374
 Iteration  3 RMS(Cart)=  0.00000000 RMS(Int)=  0.00001374
 Variable       Old X    -DE/DX   Delta X   Delta X   Delta X     New X
                                 (Linear)    (Quad)   (Total)
    R1        2.63252   0.00001  -0.00007   0.00007   0.00000   2.63252
    R2        2.64579   0.00001  -0.00004   0.00005   0.00002   2.64581
    R3        2.05756   0.00000   0.00000   0.00001   0.00001   2.05758
    R4        2.66362   0.00003  -0.00003   0.00016   0.00012   2.66374
    R5        2.05762   0.00001   0.00000   0.00006   0.00006   2.05768
    R6        2.65407  -0.00003  -0.00005  -0.00019  -0.00025   2.65382
    R7        2.81807   0.00000  -0.00010  -0.00019  -0.00030   2.81778
    R8        2.65762  -0.00002   0.00018  -0.00022  -0.00004   2.65758
    R9        2.84429  -0.00006   0.00022  -0.00046  -0.00024   2.84404
   R10        2.63310  -0.00001   0.00009  -0.00013  -0.00003   2.63307
   R11        2.05952   0.00000   0.00000  -0.00001  -0.00001   2.05952
   R12        2.05647   0.00000   0.00000   0.00000   0.00000   2.05648
   R13        2.09672  -0.00001   0.00003  -0.00007  -0.00004   2.09668
   R14        3.44441   0.00000  -0.00038   0.00004  -0.00034   3.44407
   R15        2.09651   0.00005  -0.00004   0.00032   0.00028   2.09679
   R16        2.10118  -0.00004   0.00000  -0.00023  -0.00023   2.10095
   R17        2.69809  -0.00021   0.00029  -0.00105  -0.00075   2.69734
   R18        2.09887   0.00001   0.00002   0.00004   0.00006   2.09893
   R19        3.19102  -0.00025   0.00085  -0.00172  -0.00086   3.19016
   R20        2.76890  -0.00014  -0.00003  -0.00029  -0.00032   2.76858
    A1        2.09277  -0.00001  -0.00009   0.00000  -0.00010   2.09268
    A2        2.09572   0.00000   0.00003   0.00001   0.00004   2.09576
    A3        2.09469   0.00000   0.00007  -0.00001   0.00006   2.09475
    A4        2.10953  -0.00001   0.00014  -0.00015  -0.00003   2.10950
    A5        2.08627   0.00000  -0.00005   0.00000  -0.00004   2.08623
    A6        2.08738   0.00001  -0.00009   0.00016   0.00008   2.08745
    A7        2.07876   0.00000   0.00014   0.00002   0.00015   2.07892
    A8        2.04945   0.00004  -0.00055   0.00062   0.00012   2.04957
    A9        2.15488  -0.00004   0.00041  -0.00070  -0.00033   2.15454
   A10        2.08741   0.00001  -0.00019   0.00010  -0.00010   2.08731
   A11        2.15524  -0.00003   0.00003   0.00014   0.00013   2.15537
   A12        2.04030   0.00002   0.00009  -0.00025  -0.00011   2.04019
   A13        2.10889   0.00000   0.00014  -0.00002   0.00010   2.10899
   A14        2.08817   0.00000  -0.00004   0.00001  -0.00002   2.08815
   A15        2.08613   0.00000  -0.00011   0.00002  -0.00008   2.08604
   A16        2.08895   0.00000   0.00001   0.00002   0.00003   2.08897
   A17        2.09655   0.00000  -0.00003   0.00004   0.00001   2.09656
   A18        2.09769   0.00000   0.00002  -0.00006  -0.00004   2.09765
   A19        1.91309  -0.00008  -0.00001  -0.00074  -0.00075   1.91234
   A20        2.00283   0.00002   0.00084  -0.00065   0.00015   2.00297
   A21        1.92605   0.00007  -0.00038   0.00124   0.00088   1.92692
   A22        1.87281   0.00004   0.00066  -0.00037   0.00030   1.87311
   A23        1.85303   0.00000  -0.00012   0.00006  -0.00007   1.85296
   A24        1.88946  -0.00006  -0.00103   0.00048  -0.00053   1.88893
   A25        1.93253  -0.00006  -0.00074  -0.00057  -0.00130   1.93122
   A26        1.98571   0.00006   0.00129   0.00088   0.00213   1.98784
   A27        1.95550   0.00004   0.00011   0.00044   0.00057   1.95607
   A28        1.89118  -0.00005  -0.00004  -0.00102  -0.00105   1.89013
   A29        1.90806   0.00001  -0.00025   0.00016  -0.00009   1.90797
   A30        1.78425  -0.00001  -0.00037   0.00011  -0.00025   1.78400
   A31        2.03981   0.00014   0.00423   0.00026   0.00446   2.04426
   A32        1.70971  -0.00001   0.00154  -0.00019   0.00132   1.71103
   A33        1.87231  -0.00017  -0.00125  -0.00063  -0.00189   1.87042
   A34        1.90426   0.00012   0.00388  -0.00008   0.00381   1.90807
    D1        0.00046   0.00000   0.00343  -0.00257   0.00085   0.00132
    D2        3.13833   0.00001   0.00428  -0.00269   0.00160   3.13992
    D3       -3.14020   0.00002  -0.00031   0.00180   0.00149  -3.13871
    D4       -0.00234   0.00002   0.00055   0.00169   0.00223  -0.00010
    D5        0.00367  -0.00002  -0.00690   0.00334  -0.00357   0.00011
    D6       -3.13571  -0.00004  -0.00311  -0.00159  -0.00471  -3.14041
    D7       -3.13885  -0.00003  -0.00317  -0.00103  -0.00420   3.14014
    D8        0.00496  -0.00006   0.00062  -0.00596  -0.00534  -0.00038
    D9       -0.00859   0.00003   0.00547  -0.00049   0.00497  -0.00361
   D10       -3.13583   0.00008   0.00505   0.00405   0.00911  -3.12672
   D11        3.13674   0.00003   0.00461  -0.00038   0.00423   3.14097
   D12        0.00949   0.00008   0.00419   0.00417   0.00836   0.01786
   D13        0.01250  -0.00005  -0.01080   0.00276  -0.00804   0.00447
   D14        3.13019  -0.00006  -0.01452   0.00249  -0.01203   3.11816
   D15        3.13883  -0.00011  -0.01037  -0.00207  -0.01243   3.12640
   D16       -0.02668  -0.00012  -0.01409  -0.00233  -0.01642  -0.04310
   D17        1.29985   0.00004   0.00899   0.00165   0.01064   1.31050
   D18       -2.87503   0.00005   0.01041   0.00016   0.01057  -2.86446
   D19       -0.73494   0.00004   0.00937   0.00129   0.01066  -0.72429
   D20       -1.82671   0.00010   0.00856   0.00640   0.01496  -1.81174
   D21        0.28160   0.00010   0.00998   0.00491   0.01489   0.29649
   D22        2.42168   0.00010   0.00894   0.00604   0.01498   2.43666
   D23       -0.00857   0.00004   0.00745  -0.00201   0.00544  -0.00313
   D24        3.13039   0.00006   0.00363   0.00287   0.00651   3.13689
   D25       -3.12780   0.00005   0.01093  -0.00176   0.00917  -3.11863
   D26        0.01116   0.00007   0.00711   0.00312   0.01023   0.02139
   D27       -1.80367   0.00002   0.00451  -0.00053   0.00399  -1.79968
   D28        0.33118  -0.00004   0.00483  -0.00166   0.00317   0.33435
   D29        2.34433   0.00001   0.00529  -0.00064   0.00464   2.34897
   D30        1.31461   0.00001   0.00088  -0.00079   0.00010   1.31471
   D31       -2.83373  -0.00005   0.00120  -0.00192  -0.00072  -2.83445
   D32       -0.82058   0.00000   0.00166  -0.00090   0.00075  -0.81982
   D33        0.00039   0.00000   0.00147  -0.00106   0.00042   0.00081
   D34        3.13977   0.00002  -0.00232   0.00388   0.00156   3.14133
   D35       -3.13857  -0.00003   0.00529  -0.00593  -0.00065  -3.13921
   D36        0.00081   0.00000   0.00150  -0.00100   0.00049   0.00130
   D37       -0.69493   0.00003   0.00129  -0.00372  -0.00241  -0.69734
   D38        1.27607   0.00011   0.00576  -0.00406   0.00170   1.27777
   D39        1.43539  -0.00002   0.00231  -0.00537  -0.00306   1.43233
   D40       -2.87681   0.00006   0.00678  -0.00572   0.00106  -2.87575
   D41       -2.85461  -0.00003   0.00199  -0.00525  -0.00325  -2.85786
   D42       -0.88362   0.00005   0.00646  -0.00560   0.00087  -0.88275
   D43       -0.94439   0.00010   0.00673   0.00232   0.00907  -0.93531
   D44        1.21309   0.00004   0.00663   0.00144   0.00807   1.22116
   D45       -3.05628   0.00003   0.00617   0.00126   0.00744  -3.04884
   D46        1.06646  -0.00012  -0.00913   0.00014  -0.00899   1.05748
   D47       -0.87879   0.00003  -0.00952   0.00094  -0.00858  -0.88736
         Item               Value     Threshold  Converged?
 Maximum Force            0.000252     0.000015     NO 
 RMS     Force            0.000063     0.000010     NO 
 Maximum Displacement     0.034258     0.000060     NO 
 RMS     Displacement     0.009343     0.000040     NO 
 Predicted change in Energy=-9.876827D-06
 GradGradGradGradGradGradGradGradGradGradGradGradGradGradGradGradGradGrad

                          Input orientation:                          
 ---------------------------------------------------------------------
 Center     Atomic      Atomic             Coordinates (Angstroms)
 Number     Number       Type             X           Y           Z
 ---------------------------------------------------------------------
      1          6           0       -2.438730   -1.988227    0.185230
      2          6           0       -1.065559   -2.040369   -0.043529
      3          6           0       -0.308644   -0.858328   -0.173186
      4          6           0       -0.957646    0.383025   -0.073138
      5          6           0       -2.344044    0.425191    0.158992
      6          6           0       -3.082757   -0.749238    0.287328
      7          1           0        1.311406   -1.301912   -1.492787
      8          1           0       -3.010522   -2.909330    0.286010
      9          1           0       -0.570565   -3.007187   -0.120337
     10          6           0        1.151907   -1.003260   -0.436191
     11          6           0       -0.242592    1.703993   -0.166830
     12          1           0       -2.847769    1.388144    0.241162
     13          1           0       -4.155106   -0.704280    0.467082
     14          1           0       -0.118484    2.155067    0.841720
     15          8           0        1.042463    1.623403   -0.782887
     16         16           0        2.133388    0.504434   -0.144400
     17          8           0        2.222927    0.688106    1.306351
     18          1           0       -0.775176    2.421027   -0.827044
     19          1           0        1.577372   -1.819642    0.183206
 ---------------------------------------------------------------------
                    Distance matrix (angstroms):
                    1          2          3          4          5
     1  C    0.000000
     2  C    1.393071   0.000000
     3  C    2.437703   1.409593   0.000000
     4  C    2.807703   2.425976   1.404340   0.000000
     5  C    2.415417   2.784695   2.429118   1.406329   0.000000
     6  C    1.400103   2.417762   2.814192   2.434759   1.393359
     7  H    4.165367   2.880213   2.136042   3.162755   4.367331
     8  H    1.088822   2.155590   3.423100   3.896523   3.402845
     9  H    2.149811   1.088878   2.165408   3.412565   3.873560
    10  C    3.774784   2.479302   1.491103   2.550257   3.823139
    11  C    4.310389   3.835716   2.563179   1.505004   2.481450
    12  H    3.401518   3.874535   3.415476   2.163703   1.089849
    13  H    2.161922   3.404579   3.902428   3.420208   2.156518
    14  H    4.793892   4.391162   3.185395   2.163629   2.900294
    15  O    5.108798   4.291111   2.890712   2.458194   3.713661
    16  S    5.217880   4.088944   2.796689   3.094239   4.488399
    17  O    5.490966   4.481171   3.315017   3.480245   4.716225
    18  H    4.820127   4.538972   3.376292   2.180624   2.723412
    19  H    4.019638   2.661806   2.146671   3.368051   4.518557
                    6          7          8          9         10
     6  C    0.000000
     7  H    4.773146   0.000000
     8  H    2.161300   4.942365   0.000000
     9  H    3.402298   2.886762   2.475497   0.000000
    10  C    4.303532   1.109518   4.634706   2.661278   0.000000
    11  C    3.780362   3.634355   5.399004   4.722810   3.057188
    12  H    2.150757   5.248021   4.300789   4.963393   4.709037
    13  H    1.088240   5.837894   2.491004   4.300857   5.391631
    14  H    4.186795   4.409673   5.858397   5.270559   3.636204
    15  O    4.877727   3.022211   6.173726   4.948050   2.651704
    16  S    5.382030   2.399310   6.188606   4.432090   1.822522
    17  O    5.590585   3.553339   6.432078   4.847084   2.654101
    18  H    4.076436   4.319412   5.886286   5.477847   3.948690
    19  H    4.782614   1.774185   4.716647   2.473062   1.109573
                   11         12         13         14         15
    11  C    0.000000
    12  H    2.655780   0.000000
    13  H    4.637822   2.477582   0.000000
    14  H    1.111775   2.897903   4.960901   0.000000
    15  O    1.427370   4.029631   5.830545   2.066352   0.000000
    16  S    2.661715   5.073611   6.432734   2.961073   1.688158
    17  O    3.046484   5.228445   6.581977   2.801796   2.575498
    18  H    1.110706   2.550206   4.781865   1.812941   1.985438
    19  H    3.981305   5.465814   5.846873   4.371256   3.615802
                   16         17         18         19
    16  S    0.000000
    17  O    1.465070   0.000000
    18  H    3.549518   4.067310   0.000000
    19  H    2.412013   2.822586   4.953621   0.000000
 Symmetry turned off by external request.
 Stoichiometry    C8H8O2S
 Framework group  C1[X(C8H8O2S)]
 Deg. of freedom    51
 Full point group                 C1      NOp   1
 Rotational constants (GHZ):           2.1867989           0.7275245           0.6064136
 Standard basis: VSTO-6G (5D, 7F)
    57 basis functions,   348 primitive gaussians,    58 cartesian basis functions
    29 alpha electrons       29 beta electrons
       nuclear repulsion energy       342.7841784120 Hartrees.
 Integral buffers will be    131072 words long.
 Regular integral format.
 Two-electron integral symmetry is turned off.
 Do NDO integrals.
 One-electron integrals computed using PRISM.
 NBasis=    57 RedAO= F EigKep=  0.00D+00  NBF=    57
 NBsUse=    57 1.00D-04 EigRej=  0.00D+00 NBFU=    57
 Initial guess from the checkpoint file:  "C:\Users\al6323\OneDrive - Imperial College London\Desktop\TSR20251115\Exercise 3\DA reaction\TS_endo_Berny_IRC_product.chk"
 B after Tr=     0.001834   -0.001555    0.001886
         Rot=    1.000000   -0.000676   -0.000137    0.000335 Ang=  -0.09 deg.
 Keep J ints in memory in canonical form, NReq=1859402.
 Overlap will be assumed to be unity.
 Requested convergence on RMS density matrix=1.00D-08 within 128 cycles.
 Requested convergence on MAX density matrix=1.00D-06.
 Requested convergence on             energy=1.00D-06.
 No special actions if energy rises.
 SCF Done:  E(RPM6) = -0.779797003284E-01 A.U. after   14 cycles
            NFock= 13  Conv=0.36D-08     -V/T= 0.9993
 Calling FoFJK, ICntrl=      2127 FMM=F ISym2X=0 I1Cent= 0 IOpClX= 0 NMat=1 NMatS=1 NMatT=0.
 -------------------------------------------------------------------
 Center     Atomic                   Forces (Hartrees/Bohr)
 Number     Number              X              Y              Z
 -------------------------------------------------------------------
      1        6           0.000010530    0.000006162   -0.000004114
      2        6          -0.000016188    0.000011950   -0.000009504
      3        6           0.000013372   -0.000121754   -0.000021962
      4        6           0.000022611    0.000046996   -0.000005014
      5        6          -0.000027971    0.000020283    0.000035284
      6        6          -0.000003421    0.000004735   -0.000012531
      7        1          -0.000027546    0.000025012   -0.000039890
      8        1           0.000001960    0.000002656    0.000010311
      9        1           0.000004231    0.000006232    0.000023567
     10        6          -0.000025050   -0.000083989    0.000048962
     11        6           0.000048731   -0.000035661   -0.000142708
     12        1          -0.000005510    0.000003696    0.000009530
     13        1          -0.000001075   -0.000000619    0.000002778
     14        1          -0.000009077    0.000032636    0.000054496
     15        8           0.000224840   -0.000246521    0.000225574
     16       16          -0.000193726    0.000319436    0.000017592
     17        8          -0.000016396    0.000020064   -0.000110546
     18        1          -0.000018154   -0.000001463   -0.000017828
     19        1           0.000017838   -0.000009851   -0.000063995
 -------------------------------------------------------------------
 Cartesian Forces:  Max     0.000319436 RMS     0.000082048

 GradGradGradGradGradGradGradGradGradGradGradGradGradGradGradGradGradGrad
 Berny optimization.
 Using GEDIIS/GDIIS optimizer.
 FormGI is forming the generalized inverse of G from B-inverse, IUseBI=4.
 Internal  Forces:  Max     0.000367431 RMS     0.000045891
 Search for a local minimum.
 Step number   3 out of a maximum of  111
 All quantities printed in internal units (Hartrees-Bohrs-Radians)
 Mixed Optimization -- En-DIIS/RFO-DIIS
 Swapping is turned off.
 Update second derivatives using D2CorX and points    1    2    3
 DE= -1.11D-05 DEPred=-9.88D-06 R= 1.13D+00
 TightC=F SS=  1.41D+00  RLast= 5.18D-02 DXNew= 5.0454D-01 1.5532D-01
 Trust test= 1.13D+00 RLast= 5.18D-02 DXMaxT set to 3.00D-01
 ITU=  1  1  0
     Eigenvalues ---    0.00436   0.01067   0.01269   0.01528   0.01738
     Eigenvalues ---    0.02058   0.02073   0.02103   0.02125   0.02150
     Eigenvalues ---    0.02356   0.04178   0.05581   0.06513   0.07085
     Eigenvalues ---    0.07660   0.10301   0.11036   0.11928   0.12207
     Eigenvalues ---    0.14229   0.16000   0.16000   0.16000   0.16002
     Eigenvalues ---    0.19816   0.21372   0.22001   0.22656   0.23991
     Eigenvalues ---    0.24421   0.24876   0.31356   0.32440   0.32530
     Eigenvalues ---    0.32572   0.32653   0.32705   0.34830   0.34948
     Eigenvalues ---    0.34950   0.35017   0.37570   0.39912   0.41110
     Eigenvalues ---    0.41712   0.44249   0.45132   0.45844   0.46564
     Eigenvalues ---    0.89572
 En-DIIS/RFO-DIIS/Sim-DIIS IScMMF=       -3 using points:     3    2    1
 RFO step:  Lambda=-2.65013902D-06.
 DidBck=F Rises=F RFO-DIIS coefs:    1.17169    0.01023   -0.18192
 Iteration  1 RMS(Cart)=  0.00291243 RMS(Int)=  0.00000662
 Iteration  2 RMS(Cart)=  0.00000533 RMS(Int)=  0.00000502
 Iteration  3 RMS(Cart)=  0.00000000 RMS(Int)=  0.00000502
 Variable       Old X    -DE/DX   Delta X   Delta X   Delta X     New X
                                 (Linear)    (Quad)   (Total)
    R1        2.63252   0.00000  -0.00001   0.00000  -0.00001   2.63252
    R2        2.64581   0.00001   0.00000   0.00002   0.00002   2.64583
    R3        2.05758   0.00000   0.00000  -0.00001   0.00000   2.05757
    R4        2.66374  -0.00002   0.00002  -0.00005  -0.00004   2.66371
    R5        2.05768  -0.00001   0.00001  -0.00002  -0.00001   2.05767
    R6        2.65382   0.00006  -0.00005   0.00018   0.00012   2.65394
    R7        2.81778   0.00001  -0.00006  -0.00002  -0.00009   2.81769
    R8        2.65758   0.00003   0.00002   0.00007   0.00009   2.65766
    R9        2.84404  -0.00001  -0.00001   0.00009   0.00008   2.84412
   R10        2.63307  -0.00001   0.00001  -0.00001   0.00000   2.63307
   R11        2.05952   0.00001   0.00000   0.00002   0.00002   2.05953
   R12        2.05648   0.00000   0.00000   0.00000   0.00000   2.05648
   R13        2.09668   0.00003   0.00000   0.00008   0.00008   2.09677
   R14        3.44407   0.00011  -0.00011   0.00036   0.00025   3.44432
   R15        2.09679  -0.00002   0.00004  -0.00008  -0.00004   2.09675
   R16        2.10095   0.00006  -0.00004   0.00020   0.00016   2.10111
   R17        2.69734  -0.00007  -0.00009  -0.00004  -0.00013   2.69721
   R18        2.09893   0.00002   0.00001   0.00005   0.00006   2.09899
   R19        3.19016  -0.00037  -0.00003  -0.00100  -0.00103   3.18913
   R20        2.76858  -0.00011  -0.00006  -0.00010  -0.00015   2.76843
    A1        2.09268   0.00002  -0.00003   0.00007   0.00004   2.09272
    A2        2.09576  -0.00001   0.00001  -0.00003  -0.00002   2.09574
    A3        2.09475  -0.00001   0.00002  -0.00005  -0.00003   2.09472
    A4        2.10950   0.00000   0.00001  -0.00005  -0.00004   2.10945
    A5        2.08623   0.00000  -0.00001   0.00005   0.00004   2.08627
    A6        2.08745   0.00000   0.00000   0.00000   0.00000   2.08746
    A7        2.07892  -0.00001   0.00004   0.00000   0.00005   2.07896
    A8        2.04957   0.00007  -0.00005   0.00038   0.00035   2.04992
    A9        2.15454  -0.00006   0.00000  -0.00038  -0.00040   2.15414
   A10        2.08731   0.00001  -0.00004   0.00001  -0.00003   2.08728
   A11        2.15537   0.00001   0.00003   0.00013   0.00014   2.15551
   A12        2.04019  -0.00002  -0.00001  -0.00013  -0.00012   2.04006
   A13        2.10899  -0.00002   0.00004  -0.00006  -0.00003   2.10895
   A14        2.08815   0.00001  -0.00001   0.00006   0.00005   2.08820
   A15        2.08604   0.00000  -0.00003   0.00001  -0.00002   2.08603
   A16        2.08897   0.00000   0.00001   0.00002   0.00002   2.08900
   A17        2.09656   0.00000   0.00000  -0.00001  -0.00002   2.09654
   A18        2.09765   0.00000   0.00000   0.00000  -0.00001   2.09765
   A19        1.91234   0.00000  -0.00013  -0.00024  -0.00036   1.91198
   A20        2.00297  -0.00003   0.00014  -0.00062  -0.00050   2.00247
   A21        1.92692   0.00002   0.00010   0.00053   0.00063   1.92755
   A22        1.87311   0.00001   0.00014   0.00002   0.00017   1.87327
   A23        1.85296  -0.00001  -0.00003   0.00002  -0.00001   1.85295
   A24        1.88893   0.00001  -0.00023   0.00032   0.00010   1.88903
   A25        1.93122  -0.00001  -0.00032  -0.00016  -0.00048   1.93075
   A26        1.98784   0.00002   0.00054   0.00019   0.00071   1.98856
   A27        1.95607  -0.00002   0.00011  -0.00008   0.00004   1.95610
   A28        1.89013  -0.00002  -0.00018  -0.00012  -0.00029   1.88984
   A29        1.90797   0.00000  -0.00005  -0.00005  -0.00010   1.90787
   A30        1.78400   0.00003  -0.00009   0.00023   0.00014   1.78414
   A31        2.04426   0.00005   0.00132  -0.00030   0.00102   2.04528
   A32        1.71103   0.00004   0.00043  -0.00055  -0.00013   1.71090
   A33        1.87042   0.00003  -0.00049   0.00042  -0.00007   1.87035
   A34        1.90807  -0.00001   0.00117  -0.00054   0.00063   1.90870
    D1        0.00132   0.00000   0.00060   0.00003   0.00063   0.00194
    D2        3.13992  -0.00001   0.00084  -0.00085  -0.00001   3.13992
    D3       -3.13871   0.00001   0.00022   0.00042   0.00063  -3.13808
    D4       -0.00010   0.00000   0.00046  -0.00046   0.00000  -0.00010
    D5        0.00011  -0.00001  -0.00153   0.00028  -0.00124  -0.00113
    D6       -3.14041   0.00000  -0.00122   0.00057  -0.00065  -3.14106
    D7        3.14014  -0.00001  -0.00114  -0.00011  -0.00125   3.13889
    D8       -0.00038   0.00000  -0.00084   0.00018  -0.00065  -0.00104
    D9       -0.00361   0.00000   0.00158  -0.00070   0.00087  -0.00274
   D10       -3.12672   0.00000   0.00223  -0.00101   0.00123  -3.12549
   D11        3.14097   0.00002   0.00134   0.00017   0.00151  -3.14071
   D12        0.01786   0.00002   0.00199  -0.00013   0.00186   0.01972
   D13        0.00447  -0.00001  -0.00281   0.00106  -0.00175   0.00272
   D14        3.11816  -0.00001  -0.00399   0.00136  -0.00263   3.11553
   D15        3.12640  -0.00001  -0.00351   0.00139  -0.00211   3.12429
   D16       -0.04310  -0.00001  -0.00468   0.00169  -0.00299  -0.04609
   D17        1.31050   0.00002   0.00302   0.00244   0.00546   1.31596
   D18       -2.86446   0.00000   0.00319   0.00187   0.00506  -2.85939
   D19       -0.72429   0.00002   0.00307   0.00225   0.00532  -0.71897
   D20       -1.81174   0.00002   0.00370   0.00212   0.00583  -1.80592
   D21        0.29649   0.00000   0.00388   0.00155   0.00543   0.30191
   D22        2.43666   0.00002   0.00376   0.00193   0.00568   2.44234
   D23       -0.00313   0.00000   0.00192  -0.00077   0.00115  -0.00197
   D24        3.13689   0.00000   0.00160  -0.00084   0.00076   3.13765
   D25       -3.11863   0.00001   0.00302  -0.00105   0.00197  -3.11666
   D26        0.02139   0.00000   0.00270  -0.00112   0.00158   0.02297
   D27       -1.79968  -0.00003   0.00128  -0.00302  -0.00173  -1.80141
   D28        0.33435  -0.00005   0.00119  -0.00315  -0.00197   0.33238
   D29        2.34897  -0.00001   0.00150  -0.00278  -0.00129   2.34769
   D30        1.31471  -0.00003   0.00013  -0.00273  -0.00259   1.31212
   D31       -2.83445  -0.00005   0.00004  -0.00286  -0.00282  -2.83727
   D32       -0.81982  -0.00002   0.00035  -0.00249  -0.00214  -0.82196
   D33        0.00081   0.00000   0.00027   0.00009   0.00035   0.00116
   D34        3.14133  -0.00001  -0.00004  -0.00020  -0.00024   3.14109
   D35       -3.13921   0.00001   0.00059   0.00016   0.00075  -3.13847
   D36        0.00130   0.00000   0.00028  -0.00013   0.00016   0.00146
   D37       -0.69734  -0.00002  -0.00024  -0.00305  -0.00329  -0.70063
   D38        1.27777  -0.00001   0.00105  -0.00373  -0.00268   1.27509
   D39        1.43233  -0.00004  -0.00022  -0.00375  -0.00396   1.42836
   D40       -2.87575  -0.00003   0.00108  -0.00443  -0.00335  -2.87910
   D41       -2.85786  -0.00004  -0.00029  -0.00355  -0.00384  -2.86170
   D42       -0.88275  -0.00003   0.00100  -0.00423  -0.00323  -0.88598
   D43       -0.93531   0.00001   0.00245   0.00099   0.00345  -0.93187
   D44        1.22116  -0.00001   0.00226   0.00084   0.00310   1.22426
   D45       -3.04884   0.00000   0.00209   0.00084   0.00294  -3.04590
   D46        1.05748   0.00001  -0.00275   0.00184  -0.00092   1.05656
   D47       -0.88736  -0.00003  -0.00273   0.00177  -0.00097  -0.88833
         Item               Value     Threshold  Converged?
 Maximum Force            0.000367     0.000015     NO 
 RMS     Force            0.000046     0.000010     NO 
 Maximum Displacement     0.012423     0.000060     NO 
 RMS     Displacement     0.002913     0.000040     NO 
 Predicted change in Energy=-1.307373D-06
 GradGradGradGradGradGradGradGradGradGradGradGradGradGradGradGradGradGrad

                          Input orientation:                          
 ---------------------------------------------------------------------
 Center     Atomic      Atomic             Coordinates (Angstroms)
 Number     Number       Type             X           Y           Z
 ---------------------------------------------------------------------
      1          6           0       -2.438132   -1.988153    0.187503
      2          6           0       -1.065046   -2.040368   -0.041721
      3          6           0       -0.308510   -0.858360   -0.173650
      4          6           0       -0.957601    0.383080   -0.074354
      5          6           0       -2.344142    0.425271    0.157201
      6          6           0       -3.082584   -0.749164    0.287048
      7          1           0        1.309702   -1.296889   -1.496745
      8          1           0       -3.009560   -2.909219    0.290640
      9          1           0       -0.569733   -3.007175   -0.116526
     10          6           0        1.151689   -1.002813   -0.438598
     11          6           0       -0.242532    1.704149   -0.167161
     12          1           0       -2.848119    1.388211    0.238090
     13          1           0       -4.154978   -0.704217    0.466555
     14          1           0       -0.121482    2.155666    0.841658
     15          8           0        1.044389    1.624283   -0.779246
     16         16           0        2.133364    0.503862   -0.141413
     17          8           0        2.220856    0.683577    1.309875
     18          1           0       -0.773693    2.420760   -0.829037
     19          1           0        1.577979   -1.821882    0.176632
 ---------------------------------------------------------------------
                    Distance matrix (angstroms):
                    1          2          3          4          5
     1  C    0.000000
     2  C    1.393067   0.000000
     3  C    2.437654   1.409573   0.000000
     4  C    2.807719   2.426049   1.404405   0.000000
     5  C    2.415444   2.784786   2.429190   1.406375   0.000000
     6  C    1.400115   2.417801   2.814188   2.434777   1.393361
     7  H    4.166630   2.882583   2.135767   3.160089   4.364854
     8  H    1.088820   2.155574   3.423048   3.896535   3.402853
     9  H    2.149826   1.088873   2.165388   3.412631   3.873646
    10  C    3.774880   2.479505   1.491056   2.549996   3.822988
    11  C    4.310399   3.835841   2.563366   1.505045   2.481431
    12  H    3.401542   3.874636   3.415586   2.163785   1.089858
    13  H    2.161926   3.404604   3.902427   3.420236   2.156518
    14  H    4.792288   4.390600   3.185934   2.163384   2.898786
    15  O    5.110015   4.292240   2.891470   2.458744   3.714391
    16  S    5.216982   4.088138   2.796325   3.094051   4.488140
    17  O    5.486714   4.477035   3.313021   3.479796   4.715356
    18  H    4.821020   4.539429   3.376175   2.180713   2.724142
    19  H    4.019567   2.661014   2.147071   3.369573   4.520299
                    6          7          8          9         10
     6  C    0.000000
     7  H    4.772222   0.000000
     8  H    2.161292   4.944732   0.000000
     9  H    3.402338   2.891775   2.475507   0.000000
    10  C    4.303484   1.109561   4.634886   2.661671   0.000000
    11  C    3.780337   3.630903   5.398999   4.722943   3.056988
    12  H    2.150754   5.244702   4.300783   4.963488   4.708861
    13  H    1.088243   5.836826   2.490977   4.300882   5.391585
    14  H    4.184943   4.408690   5.856421   5.270101   3.638132
    15  O    4.878744   3.019675   6.175095   4.949241   2.651261
    16  S    5.381428   2.399593   6.187524   4.431110   1.822655
    17  O    5.587970   3.553810   6.426840   4.841865   2.654089
    18  H    4.077382   4.313617   5.887398   5.478298   3.947201
    19  H    4.783698   1.774198   4.716017   2.470532   1.109551
                   11         12         13         14         15
    11  C    0.000000
    12  H    2.655772   0.000000
    13  H    4.637785   2.477566   0.000000
    14  H    1.111861   2.896175   4.958701   0.000000
    15  O    1.427303   4.030176   5.831582   2.066145   0.000000
    16  S    2.661998   5.073585   6.432132   2.962973   1.687613
    17  O    3.048194   5.228742   6.579394   2.805855   2.575545
    18  H    1.110740   2.551109   4.783004   1.812974   1.985517
    19  H    3.983133   5.467981   5.848080   4.376221   3.615864
[...]
 -0.0238876,0.0977732,-0.7173205,-0.1490004,0.0250939,-0.1091866,-0.791
 5976,0.5260448,0.1892618,-0.1543221,0.2001679,-0.1398248,0.0939978,-0.
 3362499,0.086004,-0.1321951,0.143409,-0.0893917,0.0047723,-0.0998126,0
 .2216965,0.0142143,-0.000409,0.0159092,0.1459913,0.3236845,0.0060432,-
 0.024251,-0.0131143,0.0814207,0.0029464,-0.03199,-0.0007806,0.1600718,
 0.031987,-0.0323609,0.0159249,-0.0162096,0.1494533,0.0292818,0.0224127
 ,0.0952093,0.1580505,-1.0550126,0.2381045,-0.1286278,-0.0174154,-0.637
 6422,0.0801329,0.0701144,0.0324804,-0.5687736,1.6338293,0.0149909,0.09
 26492,0.1612416,1.4000894,-0.0766696,0.9647555,0.1889836,1.5806233,-0.
 7637578,-0.0247548,0.1832844,-0.1225135,-0.6252594,0.032679,-0.7359693
 ,-0.1936112,-0.9399819,0.0147704,-0.0038899,0.0244852,-0.039104,0.1970
 951,-0.047127,0.0876735,-0.0887327,0.1869822,0.1877224,-0.069193,-0.00
 66795,-0.0523513,0.2804261,0.0123617,-0.0283001,-0.0736692,0.194899|Po
 lar=116.0119472,9.2056932,107.3961597,-1.7946605,-0.282391,50.0548602|
 HyperPolar=-123.0850962,-0.697965,110.8681744,-17.8068801,63.3856038,-
 12.2526525,29.5588039,-5.2456439,-22.9803917,-112.4121453|PG=C01 [X(C8
 H8O2S1)]|NImag=0||0.63783503,-0.01957596,0.62251099,-0.09027441,-0.004
 81640,0.15810749,-0.32445687,-0.05705684,0.04837910,0.65001611,0.07324
 583,-0.09646363,-0.01290024,0.00732426,0.59855252,0.04659055,0.0108796
 8,-0.07269105,-0.09296394,-0.00978840,0.15697112,-0.05054389,-0.023270
 86,0.01060832,-0.14298315,-0.14967994,0.01600310,0.66574235,-0.1306179
 5,0.06078185,0.02310833,-0.02735686,-0.23881681,0.00824678,-0.02037787
 ,0.65249041,0.01234048,0.00322378,0.00231752,0.01390173,0.03002149,-0.
 06801574,-0.09722740,-0.00336972,0.18238608,-0.08359827,0.05006300,0.0
 1385770,0.09661334,0.04371514,-0.01687416,-0.13339410,0.02510741,0.012
 44969,0.63788141,0.04736562,-0.03813969,-0.00821351,-0.05966955,-0.089
 79244,0.01244701,0.14815797,-0.25935483,-0.02404594,-0.00023283,0.6858
 4942,0.01404430,-0.00843757,-0.00538015,-0.01561195,-0.00662545,0.0077
 4876,0.01102279,-0.00132605,-0.06595439,-0.08626768,-0.00217274,0.1758
 9872,0.09841191,-0.06179131,-0.01586067,-0.09030152,-0.04247209,0.0163
 8657,-0.03601311,0.13713252,0.00511889,-0.29174540,-0.04870770,0.04270
 471,0.61888089,0.04605848,-0.09482922,-0.00668121,-0.04433661,-0.03196
 566,0.00822888,0.03123032,0.04651184,-0.00649318,0.07194818,-0.0912525
 4,-0.01279448,0.03382847,0.63446498,-0.01802626,0.01306366,0.00938459,
 0.01706554,0.00854111,-0.00620353,0.00665257,-0.02604561,0.00381139,0.
 04026908,0.00939708,-0.07191542,-0.08731217,-0.01253653,0.15738063,-0.
 14133654,0.15572212,0.01136687,-0.03755910,0.03388990,0.00734053,-0.00
 643163,-0.00417660,0.00060190,-0.04846254,-0.02565197,0.00999955,-0.16
 198091,-0.17126729,0.02039813,0.60167528,0.02378831,-0.26834275,-0.000
 86754,0.14147527,0.04545121,-0.02611473,-0.00579674,-0.11764675,0.0030
 5709,-0.13212200,0.05721167,0.02333402,-0.04134127,-0.26317394,0.00977
 528,0.00656184,0.65892019,0.01342172,-0.02482552,-0.06737545,0.0057942
 1,-0.00688012,0.00556777,0.00065114,0.00251703,-0.00344458,0.01187785,
 0.00391600,0.00317896,0.01845748,0.03391704,-0.06794045,-0.08405282,-0
 .00936910,0.15569716,0.00013465,-0.00006065,-0.00069573,-0.00133213,-0
 .00031207,0.00013819,-0.01656600,0.00584148,0.02901126,-0.00082889,0.0
 0004796,0.00023488,-0.00030248,-0.00010694,-0.00083024,-0.00004016,0.0
 0017611,-0.00002924,0.04862841,0.00031977,-0.00013538,0.00003053,-0.00
 058633,-0.00054129,-0.00020697,0.00531422,0.00416279,-0.00488053,0.000
 42073,-0.00015968,0.00014786,-0.00019629,-0.00017983,0.00003508,-0.000
 12156,0.00016367,0.00001573,-0.00340722,0.04311437,0.00002140,-0.00012
 364,0.00015567,-0.00008200,-0.00003804,-0.00028643,0.01926219,-0.00362
 169,-0.01340455,-0.00043200,0.00009997,-0.00001475,0.00011225,0.000145
 30,0.00008644,-0.00012845,-0.00004955,-0.00001578,-0.03307740,0.041486
 59,0.24794542,-0.08497725,-0.08189641,0.00940342,-0.03140899,-0.025275
 19,0.00719838,-0.00273542,0.00088320,0.00155260,0.00032448,-0.00001972
 ,-0.00004851,-0.00070905,0.00134849,0.00107470,0.00699432,0.00794981,-
 0.00040348,-0.00000772,0.00002025,0.00000792,0.11301691,-0.08174796,-0
 .16644761,0.01730084,-0.01073525,-0.00143607,0.00202654,-0.00016766,0.
 00012778,0.00017989,0.00027765,0.00025694,-0.00009738,0.00159738,-0.00
 226721,-0.00016034,-0.00659820,-0.04037373,0.00201533,-0.00005515,0.00
 003581,0.00007099,0.09666599,0.20987810,0.00936092,0.01731939,-0.04398
 923,0.00697636,0.00477173,0.00416798,0.00154957,-0.00013793,0.00543533
 ,-0.00005434,0.00002975,0.00025029,0.00105953,-0.00011062,0.00499800,-
 0.00011835,-0.00065551,0.00576435,0.00008137,0.00001740,0.00002798,-0.
 01813901,-0.02109688,0.02731514,-0.02870583,0.02772430,0.00576150,-0.0
 7206328,0.07463690,0.00404819,0.00738872,-0.01224373,0.00001975,-0.001
 04117,-0.00103358,0.00112097,0.00037242,-0.00022701,-0.00003310,-0.002
 92370,-0.00039283,0.00154747,-0.00001082,-0.00037808,0.00007989,-0.000
 77709,0.00020316,-0.00010754,0.09975380,0.01401550,-0.00501527,-0.0024
 0689,0.07463689,-0.18056705,-0.01082285,0.00145496,-0.03959069,0.00063
 254,-0.00139410,-0.00219638,0.00037466,-0.00043431,0.00045668,0.000043
 87,0.00006075,0.00045388,0.00011847,-0.00011319,0.00007977,0.00015889,
 -0.00010959,0.00092439,-0.00002222,-0.08744619,0.22727575,0.00599229,-
 0.00486450,0.00464470,0.00409354,-0.01080359,-0.04191312,-0.00034586,0
 .00296268,0.00595280,0.00116404,0.00034044,0.00491809,-0.00003556,0.00
 004020,0.00007779,0.00155875,0.00014352,0.00527913,0.00038040,0.000183
 17,0.00005630,-0.00010364,-0.00007730,-0.00132478,-0.01216918,0.012075
 24,0.02508736,0.00078169,-0.00272261,0.00079641,-0.04161642,-0.0178040
 6,0.01007347,-0.23733977,0.01708645,0.03426477,-0.03024816,0.01733964,
 0.00579267,0.00088752,0.00252262,0.00123841,-0.00083328,0.00037577,0.0
 0014731,-0.03425152,0.00534949,0.02315920,-0.00028828,0.00047543,-0.00
 006668,-0.00118620,-0.00021415,-0.00007579,0.46431380,-0.00089549,-0.0
 0254752,0.00033417,-0.02656404,-0.00062509,0.00569918,0.02129182,-0.05
 477657,-0.00254451,0.02782500,-0.00723261,-0.00598824,-0.00008122,-0.0
 0227888,-0.00001108,0.00033397,0.00117452,-0.00000324,0.00396974,-0.03
 628052,-0.02827690,-0.00050237,0.00005426,0.00004607,-0.00031953,-0.00
 141042,-0.00002013,-0.03429254,0.36246604,0.00049561,0.00043913,0.0049
 1060,0.00979792,0.00420358,0.00473911,0.03479155,-0.00186433,-0.067267
 20,0.00580455,-0.00386210,0.00367300,0.00047761,-0.00002313,0.00541063
 ,0.00046555,-0.00004647,0.00010828,0.02202947,-0.03113933,-0.20364213,
 -0.00005848,-0.00008122,-0.00047657,0.00006203,-0.00003404,-0.00198347
 ,-0.02478745,-0.01662298,0.38271929,0.00125432,-0.00007802,-0.00014841
 ,-0.00218240,0.00145344,0.00115345,0.01173103,0.00273799,-0.00131117,-
 0.08342561,-0.06797126,0.00317342,-0.03351164,-0.02734405,0.00711013,-
 0.00218959,0.00207793,0.00128345,0.00015453,0.00036402,0.00016640,-0.0
 0026234,-0.00036042,-0.00009272,0.00040166,0.00006050,-0.00018943,-0.0
 0302432,-0.00353188,0.00169089,0.45005235,0.00021126,-0.00052110,-0.00
 002507,0.00150285,-0.00095443,-0.00031913,-0.00474285,-0.04378727,0.00
 098914,-0.06139662,-0.19172877,0.00813924,-0.02257125,-0.00660780,0.00
 417831,0.00117772,0.00170956,-0.00001924,0.00023139,-0.00017155,0.0000
 6803,-0.00000983,0.00001688,-0.00001010,-0.00018063,-0.00036536,0.0000
 5024,-0.00271345,-0.00212102,-0.00148961,0.01554933,0.45490726,-0.0002
 7423,-0.00020439,0.00008526,0.00179415,-0.00007532,0.00533493,-0.00233
 681,0.00029320,0.00502312,0.00251477,0.01085038,-0.06058749,0.00649429
 ,0.00442321,0.00386781,0.00141363,-0.00016166,0.00456860,-0.00007550,-
 0.00029500,-0.00033477,-0.00004398,0.00013792,-0.00086599,-0.00019490,
 0.00001392,-0.00035567,0.00396706,0.00121795,-0.00152574,-0.01882650,-
 0.01724681,0.39919390,-0.00086194,-0.00139647,0.00121688,0.00029198,-0
 .00013353,-0.00004955,-0.00271016,-0.00062209,0.00151060,-0.02843645,0
 .02688992,0.00589000,-0.07354446,0.07559617,0.00491684,0.00676625,-0.0
 1114268,-0.00004803,-0.00001977,-0.00001051,0.00000858,0.00020726,-0.0
 0018043,-0.00009808,-0.00007440,0.00009746,-0.00013699,-0.00025884,0.0
 0046556,-0.00011405,-0.00302291,-0.00016995,0.00036474,0.10155088,-0.0
 0174223,-0.00204570,0.00040949,-0.00026597,0.00060623,0.00008395,0.000
 50210,-0.00026251,-0.00007962,0.01272075,-0.00327406,-0.00220018,0.075
 32499,-0.17817512,-0.01219911,0.00292141,-0.04109787,0.00008699,0.0000
 5689,-0.00000181,-0.00004421,0.00014365,-0.00040056,-0.00001617,0.0000
 9673,-0.00018878,-0.00002507,-0.00054869,-0.00007813,0.00003658,-0.000
 12145,0.00038858,0.00001170,-0.08809033,0.22470017,0.00122624,0.000365
 14,0.00534065,-0.00007166,-0.00000180,0.00010238,0.00143032,0.00021021
 ,0.00501872,0.00627494,-0.00482145,0.00472265,0.00481194,-0.01225600,-
 0.04262177,-0.00019214,0.00270406,0.00584565,0.00007223,-0.00002926,0.
 00002880,-0.00010456,0.00002794,-0.00034147,-0.00013960,-0.00002862,-0
 .00079163,-0.00004074,-0.00007315,-0.00046633,0.00017322,0.00001796,-0
 .00142358,-0.01333428,0.01365638,0.02560669,-0.02384367,0.01503650,0.0
 0507682,-0.00001228,0.00132701,0.00094178,-0.00004909,0.00028408,0.000
 09407,-0.00008011,-0.00173850,0.00104735,-0.02782483,-0.01356034,0.006
 22056,-0.21352776,0.00797716,0.03140284,0.00000671,0.00006255,0.000063
 78,0.00049002,0.00048746,-0.00030221,-0.00022086,0.00011782,-0.0000148
 0,0.00055878,-0.00011036,-0.00035890,-0.00037195,-0.00004549,0.0000265
 6,0.00038366,-0.00059716,-0.00029820,0.26467029,0.02935989,-0.00887061
 ,-0.00514634,0.00103299,-0.00272571,-0.00004620,-0.00003392,0.00013270
 ,0.00000822,-0.00103103,-0.00238256,0.00027910,-0.02786509,-0.00535624
 ,0.00526420,0.00788953,-0.03450707,-0.00154293,0.00000007,-0.00000703,
 -0.00000281,0.00078674,-0.00036420,-0.00015503,0.00043639,0.00003764,-
 0.00008532,-0.00000755,0.00004345,-0.00000835,-0.00029721,0.00012267,0
 .00003497,-0.00090472,-0.00026739,0.00014865,-0.00916523,0.05425536,0.
 00489288,-0.00252219,0.00468822,0.00090055,-0.00009319,0.00497285,0.00
 010759,-0.00007153,0.00028208,0.00105005,0.00045037,0.00530584,0.00646
 818,0.00266509,0.00410520,0.03135192,-0.00156838,-0.04712639,0.0001379
 3,-0.00000946,-0.00001634,-0.00031031,-0.00010042,-0.00108126,-0.00002
 471,-0.00002510,-0.00028815,-0.00031289,-0.00001480,-0.00086887,0.0000
 0005,-0.00001005,-0.00027657,-0.00029919,0.00009288,-0.00126685,-0.043
 94020,0.00118170,0.03146295,0.00024364,-0.00032718,-0.00005145,-0.0002
 2337,-0.00021271,0.00055354,-0.00029922,-0.00013591,-0.00014225,0.0007
 5821,-0.01181974,-0.00887990,-0.00129211,-0.00090561,0.00010386,0.0001
 7596,0.00053629,0.00003620,0.00001005,0.00007482,0.00003795,0.00001636
 ,0.00004861,-0.00005061,-0.00001597,-0.00002303,-0.00000636,-0.0000561
 4,0.00003578,-0.00012171,-0.03080168,-0.00581424,-0.01645050,-0.000351
 03,-0.00026102,-0.00010764,0.00000196,0.00000771,-0.00003172,0.0503485
 7,0.00018748,0.00000264,-0.00001659,0.00015980,-0.00031676,0.00077714,
 -0.00127908,-0.00054683,0.00013674,-0.01189614,-0.02685368,-0.02215959
 ,-0.00036991,-0.00088989,-0.00023895,0.00008451,0.00012535,0.00064420,
 0.00002926,-0.00005342,-0.00005820,-0.00004531,-0.00003939,-0.00011479
 ,-0.00003869,-0.00004426,-0.00005317,0.00003562,0.00042373,0.00000882,
 -0.00241995,-0.06634495,-0.06806376,-0.00019337,0.00011042,-0.00023203
 ,-0.00004034,0.00000239,-0.00003509,0.00667832,0.08897625,0.00007780,0
 .00017908,-0.00001882,-0.00016174,0.00005885,-0.00015330,0.00046381,0.
 00047714,-0.00013527,-0.00536789,-0.01134706,-0.00094766,0.00018430,0.
 00015572,-0.00012525,0.00002319,-0.00014230,-0.00002294,-0.00000643,-0
 .00006541,-0.00001982,-0.00005006,-0.00008276,0.00003053,0.00004638,-0
 .00001558,0.00002236,-0.00018366,0.00006092,-0.00015110,-0.01001884,-0
 .06807883,-0.16813566,-0.00017405,0.00006155,0.00015505,-0.00004411,0.
 00003543,0.00004383,0.00152312,0.09076208,0.20731811,-0.00067898,-0.00
 013781,0.00003941,0.00216856,-0.00027284,-0.00021908,-0.00595403,0.003
 25174,0.00149970,-0.03758304,-0.01751803,0.01228886,-0.00068305,-0.003
 95421,0.00020662,-0.00088294,-0.00063655,0.00002125,-0.00099391,-0.000
 21375,-0.00143978,0.00028902,0.00036300,-0.00008004,-0.00041072,0.0001
 8814,0.00003722,0.01744836,0.00561824,-0.00110761,-0.20042493,0.009855
 16,0.08446651,0.00056575,-0.00016707,-0.00006292,0.00014148,-0.0002401
 0,-0.00001798,-0.02101849,0.00582152,0.01849542,0.36813639,0.00012422,
 0.00021809,0.00000321,-0.00093710,-0.00016593,-0.00011936,0.00382433,0
 .00011961,-0.00017547,-0.02514614,-0.00024588,0.00901654,-0.00121604,-
 0.00179226,0.00038536,-0.00105005,0.00013903,-0.00003868,-0.00046953,0
 .00069057,0.00124713,0.00000959,0.00004644,0.00003931,0.00009064,0.000
 20496,-0.00001109,0.00787714,-0.02892211,0.00803672,0.00377302,-0.0454
 5905,0.00258979,-0.00004101,-0.00047736,0.00001990,0.00021749,-0.00009
 051,-0.00006248,0.01447027,0.00054160,-0.00849264,-0.07124741,0.162198
 18,0.00002457,0.00004820,0.00002551,-0.00007896,0.00010615,0.00003575,
 -0.00042927,-0.00035287,-0.00045016,0.01127508,0.00516973,0.00044133,0
 .00013113,0.00085254,0.00024000,0.00028788,-0.00003571,0.00006146,0.00
 040366,0.00102276,-0.00096211,-0.00005218,-0.00007823,-0.00002395,0.00
 002680,-0.00011515,-0.00008493,-0.00350038,0.00347104,0.00320026,0.080
 71733,0.00368000,-0.07685268,-0.00012956,0.00004661,-0.00012669,-0.000
 08757,0.00004613,-0.00003754,0.03042819,-0.00890227,-0.01794941,-0.077
 98611,-0.05656193,0.14270702,0.00016817,-0.00017278,0.00038172,-0.0026
 7424,0.00128715,0.00032552,-0.02229229,-0.02152713,-0.00433370,-0.0005
 0313,0.00054131,-0.00079229,0.00044733,0.00007128,0.00020407,0.0005974
 3,0.00032342,-0.00006683,0.00356376,-0.00486117,-0.00569109,-0.0003299
 8,-0.00040058,0.00006580,0.00040653,-0.00026847,-0.00021484,-0.0857012
 5,-0.04223036,0.00061301,-0.04259225,0.02648395,-0.01461378,-0.0000937
 6,0.00039641,-0.00002779,-0.00044399,0.00005698,0.00002775,-0.00021628
 ,0.00233817,0.00024596,-0.08577347,0.04311432,-0.01166818,0.27321545,-
 0.00052422,-0.00007842,0.00018644,0.00244796,0.00047183,-0.00044504,-0
 .02328384,-0.00532865,0.00065555,0.00008013,0.00011899,0.00008560,-0.0
 0049036,-0.00178231,0.00003117,0.00066506,-0.00044199,-0.00006331,-0.0
 0547889,-0.00996609,-0.01633181,0.00006224,-0.00003224,-0.00003609,-0.
 00046571,-0.00021559,-0.00011835,-0.04718062,-0.07781329,-0.00475311,0
 .03301363,-0.00621920,-0.00084992,0.00019212,0.00045672,-0.00002887,-0
 .00044179,-0.00003967,0.00008213,-0.00018407,-0.00108895,0.00020321,0.
 04950610,-0.07871844,0.03245480,0.00308427,0.23418572,0.00032490,0.000
 31642,-0.00033558,0.00131310,0.00027663,-0.00087837,-0.00459521,0.0011
 7162,0.00539479,0.00229571,0.00042143,-0.00066412,-0.00011432,0.000225
 91,-0.00034464,0.00055338,0.00028440,-0.00027433,-0.00995670,-0.022253
 85,-0.01288766,-0.00004675,-0.00028207,0.00018056,0.00012324,-0.000349
 17,0.00047345,-0.00538319,-0.00996862,-0.03918999,-0.01563461,-0.00480
 151,0.01034598,-0.00010772,0.00020265,0.00032259,-0.00028972,0.0000636
 8,0.00021214,0.00360137,-0.00073707,0.00208651,-0.01880632,0.03818369,
 -0.04550740,0.02223244,0.02767965,0.51151952,-0.00009449,-0.00000412,-
 0.00006749,0.00040142,-0.00028013,-0.00023631,-0.00013808,0.00068246,0
 .00062704,-0.00024647,0.00006885,-0.00051363,-0.00006273,0.00010885,-0
 .00016400,-0.00012746,-0.00010136,-0.00004768,-0.00179186,-0.00277234,
 -0.00053994,0.00010811,0.00014346,0.00002139,-0.00010433,0.00015467,0.
 00015653,0.00838144,-0.00249718,-0.01778304,-0.00065513,-0.00141638,0.
 00140292,0.00007554,-0.00010999,0.00011461,0.00016419,0.00000068,0.000
 02886,0.00083676,-0.00069224,0.00098078,0.00478115,0.00550017,-0.01730
 756,-0.03711954,-0.00476592,0.01873511,0.02478651,0.00012114,0.0001022
 9,-0.00006713,-0.00028703,-0.00016503,-0.00014069,0.00145786,0.0005820
 0,0.00006517,-0.00043692,0.00028995,0.00023708,0.00005254,0.00017093,-
 0.00005642,-0.00023031,0.00011800,0.00000901,-0.00176667,-0.00268348,-
 0.00043971,0.00002382,0.00001247,0.00002663,0.00013209,0.00003258,0.00
 013126,-0.00145489,-0.00528593,-0.02239386,-0.00163229,0.00040317,-0.0
 0116945,0.00001032,-0.00014387,-0.00001566,0.00013525,-0.00000731,-0.0
 0000567,-0.00053579,-0.00001772,-0.00082005,0.00531222,-0.00226245,0.0
 1574061,-0.00579037,-0.02185564,-0.03443923,0.00561771,0.03004776,-0.0
 0021849,-0.00012192,0.00021387,-0.00098893,-0.00044143,0.00049927,0.00
 408985,-0.00155896,-0.00201939,-0.00124868,0.00037389,0.00053481,0.000
 20719,-0.00004554,0.00012699,-0.00064654,-0.00024800,0.00019734,-0.000
 81325,-0.00032690,0.00184190,0.00008779,0.00028494,-0.00011370,-0.0000
 7415,0.00042778,-0.00020647,-0.01065519,-0.01508567,-0.01396527,0.0037
 6666,0.00252543,-0.00558523,0.00012284,-0.00022523,-0.00017760,0.00038
 475,-0.00004338,-0.00015724,-0.00004557,-0.00040330,-0.00153814,-0.015
 85625,0.01036424,-0.01238675,0.00999769,-0.03862192,-0.43725392,0.0143
 5941,0.04188023,0.47133928,-0.00005221,-0.00013782,0.00000497,0.000146
 28,-0.00022130,-0.00043644,-0.00109972,-0.00071895,0.00033634,0.006283
 55,-0.00601591,0.00436375,-0.00088207,-0.00130117,0.00032597,0.0000120
 5,0.00018825,0.00002676,-0.00010943,-0.00002902,-0.00001196,0.00004434
 ,0.00006555,0.00002094,-0.00005868,-0.00002101,0.00003045,0.00133680,-
 0.00008101,0.00023494,-0.06104578,0.04383876,-0.04921825,-0.00035993,-
 0.00031228,0.00028471,0.00003441,-0.00002213,0.00001933,0.00191176,0.0
 0163717,-0.00604473,-0.03842753,0.02336393,-0.01271387,-0.00616366,0.0
 0077269,0.00244343,0.00122214,-0.00083541,-0.00118586,0.09734580,0.000
 33189,-0.00002501,-0.00005531,-0.00018504,-0.00049370,-0.00063122,-0.0
 0125550,-0.00076777,0.00035610,0.00196678,-0.03136545,0.01999027,-0.00
 058118,-0.00106481,0.00056172,-0.00000233,0.00025425,-0.00051477,0.000
 01764,-0.00006704,-0.00000951,-0.00002400,-0.00006348,0.00010189,-0.00
 002307,-0.00006585,0.00004021,-0.00016039,0.00050841,0.00012044,0.0447
 9000,-0.09368811,0.06888107,-0.00036323,0.00015498,0.00033078,-0.00004
 011,0.00003293,0.00003883,-0.00161812,0.00606920,-0.00293976,0.0161106
 8,-0.00401958,0.00313864,0.00123939,0.00008921,0.00057859,-0.00014138,
 -0.00003640,-0.00051139,-0.06007896,0.12459538,0.00006233,-0.00007250,
 -0.00001372,-0.00008714,-0.00013273,0.00001645,-0.00006908,-0.00009409
 ,-0.00010658,0.00081500,0.01069681,-0.00114155,0.00047633,0.00036618,-
 0.00015911,-0.00014613,0.00009964,-0.00006740,0.00008382,0.00001409,0.
 00017069,0.00001829,0.00002539,0.00000910,-0.00000726,0.00001757,0.000
 02659,-0.00076723,-0.00023026,-0.00037333,-0.05261859,0.07211135,-0.11
 254914,0.00042699,0.00010512,0.00006410,0.00004692,-0.00003182,0.00002
 206,-0.01038576,0.00869563,-0.02048689,-0.00169861,-0.00278928,0.00734
 961,0.00273014,0.00030748,-0.00138596,-0.00046957,0.00027353,0.0010445
 3,0.06154315,-0.08947938,0.12756520,0.00032014,0.00008314,0.00020509,-
 0.00282456,-0.00021487,0.00002680,-0.02631163,0.02476946,-0.01031498,-
 0.00226704,-0.00003212,0.00043199,-0.00014713,0.00029027,0.00057801,0.
 00007452,0.00010273,-0.00001817,0.00375675,0.00065001,-0.00151705,0.00
 000577,-0.00008177,-0.00002613,-0.00073038,-0.00076296,-0.00012111,-0.
 05890429,0.05156736,-0.03213252,-0.00008450,0.00020990,-0.00041006,-0.
 00010704,0.00005297,-0.00000876,-0.00007704,-0.00000409,-0.00004819,-0
 .00002892,0.00000287,0.00001085,-0.00070055,-0.00225570,0.00065850,0.0
 0550538,-0.00701353,0.00331379,-0.00041700,0.00010830,-0.00128467,-0.0
 0013819,0.00001737,0.00004602,0.08307637,-0.00002211,-0.00015655,-0.00
 017732,-0.00060310,-0.00005421,0.00024644,0.01665506,-0.00402583,0.002
 26273,-0.00046498,0.00024997,0.00019647,0.00017824,0.00000943,-0.00002
 772,-0.00020790,-0.00013456,0.00001675,0.00139942,0.00200054,0.0057190
 3,-0.00001142,0.00007186,0.00000316,-0.0